
     Program PHONON v.7.0 starts on 30Aug2023 at  4:38:40 

     This program is part of the open-source Quantum ESPRESSO suite
     for quantum simulation of materials; please cite
         "P. Giannozzi et al., J. Phys.:Condens. Matter 21 395502 (2009);
         "P. Giannozzi et al., J. Phys.:Condens. Matter 29 465901 (2017);
         "P. Giannozzi et al., J. Chem. Phys. 152 154105 (2020);
          URL http://www.quantum-espresso.org", 
     in publications or presentations arising from this work. More details at
     http://www.quantum-espresso.org/quote

     Parallel version (MPI & OpenMP), running on      64 processor cores
     Number of MPI processes:                64
     Threads/MPI process:                     1

     MPI processes distributed on    16 nodes
     K-points division:     npool     =       4
     R & G space division:  proc/nbgrp/npool/nimage =      16
     239324 MiB available memory on the printing compute node when the environment starts
 
     Reading input from ph.in

     Reading xml data from directory:

     ./out/m2m.save/
     file C.pbesol-n-kjpaw_psl.1.0.0.UPF: wavefunction(s)  2S 2P renormalized
     file O.pbesol-n-kjpaw_psl.0.1.UPF: wavefunction(s)  2P renormalized

     IMPORTANT: XC functional enforced from input :
     Exchange-correlation= PBESOL
                           (   1   4  10   8   0   0   0)
     Any further DFT definition will be discarded
     Please, verify this is what you really want

 
     Parallelization info
     --------------------
     sticks:   dense  smooth     PW     G-vecs:    dense   smooth      PW
     Min        3402    2408    633               210829   125653   16933
     Max        3404    2410    634               210830   125654   16934
     Sum       54445   38545  10141              3373269  2010451  270941
 
     Using Slab Decomposition
 

     Check: negative core charge=   -0.000001

     negative rho (up, down):  9.439E-04 0.000E+00
     Message from routine divide_et_impera:
     suboptimal parallelization: some nodes have no k-points
     Reading collected, re-writing distributed wavefunctions

     Calculation of q =    0.0000000   0.0000000   0.0000000

     Phonons at Gamma                                                           

     bravais-lattice index     =            4
     lattice parameter (alat)  =      40.5668  a.u.
     unit-cell volume          =   18994.0302 (a.u.)^3
     number of atoms/cell      =          192
     number of atomic types    =            5
     kinetic-energy cut-off    =      85.0000  Ry
     charge density cut-off    =     480.0000  Ry
     convergence threshold     =      1.0E-14
     beta                      =       0.7000
     number of iterations used =            4
     Exchange-correlation= PBESOL
                           (   1   4  10   8   0   0   0)


     celldm(1)=   40.56677  celldm(2)=    0.00000  celldm(3)=    0.32853
     celldm(4)=    0.00000  celldm(5)=    0.00000  celldm(6)=    0.00000

     crystal axes: (cart. coord. in units of alat)
               a(1) = (  1.0000  0.0000  0.0000 )  
               a(2) = ( -0.5000  0.8660  0.0000 )  
               a(3) = (  0.0000  0.0000  0.3285 )  

     reciprocal axes: (cart. coord. in units 2 pi/alat)
               b(1) = (  1.0000  0.5774 -0.0000 )  
               b(2) = (  0.0000  1.1547  0.0000 )  
               b(3) = (  0.0000 -0.0000  3.0439 )  


     Atoms inside the unit cell: 

     Cartesian axes

     site n.  atom      mass           positions (alat units)
        1     C   12.0107   tau(    1) = (    0.11796    0.48515    0.16474  )
        2     H    1.0079   tau(    2) = (    0.08376    0.86381    0.16513  )
        3     C   12.0107   tau(    3) = (    0.54610    0.02759    0.07637  )
        4     C   12.0107   tau(    4) = (    0.56615    0.03734    0.13803  )
        5     H    1.0079   tau(    5) = (    0.51001    0.07450    0.32355  )
        6     C   12.0107   tau(    6) = (    0.52614    0.07952    0.04315  )
        7     C   12.0107   tau(    7) = (    0.56438    0.09599    0.16453  )
        8     H    1.0079   tau(    8) = (    0.46116    0.08711    0.19733  )
        9     H    1.0079   tau(    9) = (    0.57971    0.10393    0.21253  )
       10     H    1.0079   tau(   10) = (    0.38122    0.07014    0.18090  )
       11     H    1.0079   tau(   11) = (    0.61681    0.19122    0.01170  )
       12     H    1.0079   tau(   12) = (    0.69955    0.19900    0.01864  )
       13     C   12.0107   tau(   13) = (    0.41304    0.10232    0.20558  )
       14     C   12.0107   tau(   14) = (    0.52303    0.13959    0.06868  )
       15     H    1.0079   tau(   15) = (    0.65281    0.26390   -0.00626  )
       16     C   12.0107   tau(   16) = (    0.54135    0.14867    0.13213  )
       17     C   12.0107   tau(   17) = (    0.65444    0.22326    0.02501  )
       18     H    1.0079   tau(   18) = (    0.40413    0.09998    0.25594  )
       19     H    1.0079   tau(   19) = (    0.33832    0.12543    0.00202  )
       20     H    1.0079   tau(   20) = (    0.31081    0.11599    0.11058  )
       21     O   15.9994   tau(   21) = (    0.48717    0.17505    0.29926  )
       22     H    1.0079   tau(   22) = (    0.76640    0.11576    0.18477  )
       23     H    1.0079   tau(   23) = (    0.76543    0.20027    0.10758  )
       24     C   12.0107   tau(   24) = (    0.50020    0.18990    0.02642  )
       25     H    1.0079   tau(   25) = (    0.41929    0.16960    0.13811  )
       26     N   14.0067   tau(   26) = (    0.40499    0.16688    0.18432  )
       27     O   15.9994   tau(   27) = (    0.53846    0.20241    0.16246  )
       28     H    1.0079   tau(   28) = (    0.31291    0.15829    0.21845  )
       29     H    1.0079   tau(   29) = (    0.64290    0.20582    0.11816  )
       30     N   14.0067   tau(   30) = (    0.64577    0.24446    0.08931  )
       31     C   12.0107   tau(   31) = (    0.33373    0.17638    0.00754  )
       32     C   12.0107   tau(   32) = (    0.31134    0.16709    0.11777  )
       33     H    1.0079   tau(   33) = (    0.36566    0.19941    0.30328  )
       34     H    1.0079   tau(   34) = (    0.72214    0.30480    0.07393  )
       35     N   14.0067   tau(   35) = (    0.35088    0.19351    0.07016  )
       36     C   12.0107   tau(   36) = (    0.33809    0.18300    0.18126  )
       37     C   12.0107   tau(   37) = (    0.74725    0.23382    0.14233  )
       38     C   12.0107   tau(   38) = (    0.75274    0.15095    0.21967  )
       39     Zn  65.3800   tau(   39) = (    0.46994    0.23125    0.22556  )
       40     O   15.9994   tau(   40) = (    0.49576    0.24528    0.04742  )
       41     H    1.0079   tau(   41) = (    0.72525    0.12699    0.25576  )
       42     C   12.0107   tau(   42) = (    0.70101    0.27835    0.11249  )
       43     N   14.0067   tau(   43) = (    0.71525    0.19841    0.19008  )
       44     H    1.0079   tau(   44) = (    0.28506    0.18920    0.32336  )
       45     H    1.0079   tau(   45) = (    0.26192    0.18283    0.11548  )
       46     H    1.0079   tau(   46) = (    0.79620    0.16894    0.24154  )
       47     H    1.0079   tau(   47) = (    0.78818    0.26059    0.15984  )
       48     H    1.0079   tau(   48) = (    0.35447    0.24100    0.07423  )
       49     H    1.0079   tau(   49) = (    0.33209    0.23314    0.18984  )
       50     Zn  65.3800   tau(   50) = (    0.55637    0.28388    0.11511  )
       51     O   15.9994   tau(   51) = (    0.53581    0.29944    0.26584  )
       52     H    1.0079   tau(   52) = (    0.69627    0.22790    0.22245  )
       53     H    1.0079   tau(   53) = (    0.68532    0.31243    0.14760  )
       54     O   15.9994   tau(   54) = (    0.41047    0.29196    0.27085  )
       55     H    1.0079   tau(   55) = (    0.03915    0.31652    0.22617  )
       56     H    1.0079   tau(   56) = (   -0.04332    0.32430    0.23116  )
       57     H    1.0079   tau(   57) = (   -0.00803    0.34684    0.12303  )
       58     O   15.9994   tau(   58) = (    0.46757    0.30484    0.15706  )
       59     O   15.9994   tau(   59) = (    0.59503    0.33334    0.18661  )
       60     C   12.0107   tau(   60) = (    0.57993    0.33232    0.24397  )
       61     Zn  65.3800   tau(   61) = (    0.47102    0.33478    0.00605  )
       62     C   12.0107   tau(   62) = (    0.36366    0.31994    0.24187  )
       63     H    1.0079   tau(   63) = (    0.30717    0.31437    0.32399  )
       64     C   12.0107   tau(   64) = (    0.41850    0.33019    0.13563  )
       65     C   12.0107   tau(   65) = (    0.00030    0.35086    0.22365  )
       66     C   12.0107   tau(   66) = (    0.30777    0.33001    0.27542  )
       67     O   15.9994   tau(   67) = (    0.55395    0.35493    0.05082  )
       68     H    1.0079   tau(   68) = (   -0.10309    0.39538    0.08316  )
       69     H    1.0079   tau(   69) = (   -0.11807    0.35921    0.15735  )
       70     C   12.0107   tau(   70) = (    0.36458    0.33943    0.17821  )
       71     O   15.9994   tau(   71) = (    0.41230    0.34745    0.07931  )
       72     C   12.0107   tau(   72) = (    0.00013    0.38147    0.15994  )
       73     H    1.0079   tau(   73) = (    0.03316    0.34086    0.01820  )
       74     C   12.0107   tau(   74) = (    0.61754    0.37151    0.28708  )
       75     H    1.0079   tau(   75) = (    0.21444    0.36570    0.06742  )
       76     H    1.0079   tau(   76) = (   -0.04889    0.35333    0.01074  )
       77     C   12.0107   tau(   77) = (    0.25630    0.35815    0.24888  )
       78     C   12.0107   tau(   78) = (    0.60412    0.37794    0.02339  )
       79     H    1.0079   tau(   79) = (    0.04619    0.40203    0.15123  )
       80     C   12.0107   tau(   80) = (    0.31146    0.36749    0.15270  )
       81     H    1.0079   tau(   81) = (    0.21392    0.36465    0.27663  )
       82     C   12.0107   tau(   82) = (   -0.10692    0.40360    0.13353  )
       83     H    1.0079   tau(   83) = (    0.54499    0.45137    0.30199  )
       84     H    1.0079   tau(   84) = (    0.67730    0.39696    0.21196  )
       85     C   12.0107   tau(   85) = (    0.25710    0.37797    0.18640  )
       86     H    1.0079   tau(   86) = (    0.31484    0.38262    0.10410  )
       87     C   12.0107   tau(   87) = (   -0.00294    0.37579    0.00514  )
       88     H    1.0079   tau(   88) = (    0.54046    0.42840    0.18558  )
       89     C   12.0107   tau(   89) = (    0.66879    0.40317    0.26186  )
       90     C   12.0107   tau(   90) = (    0.18783    0.39960    0.09482  )
       91     N   14.0067   tau(   91) = (    0.00285    0.39879    0.27086  )
       92     N   14.0067   tau(   92) = (   -0.04833    0.43040    0.15652  )
       93     H    1.0079   tau(   93) = (   -0.14544    0.43628    0.14136  )
       94     C   12.0107   tau(   94) = (    0.64620    0.41364    0.05933  )
       95     N   14.0067   tau(   95) = (    0.45001    0.42510    0.29555  )
       96     H    1.0079   tau(   96) = (    0.44417    0.41267    0.24907  )
       97     H    1.0079   tau(   97) = (    0.12606    0.42312    0.01886  )
       98     C   12.0107   tau(   98) = (    0.20376    0.40964    0.15762  )
       99     H    1.0079   tau(   99) = (    0.63611    0.41740    0.10922  )
      100     C   12.0107   tau(  100) = (    0.13883    0.43115    0.06761  )
      101     H    1.0079   tau(  101) = (    0.04185    0.42607    0.26643  )
      102     C   12.0107   tau(  102) = (    0.49949    0.47303    0.29295  )
      103     H    1.0079   tau(  103) = (   -0.05445    0.44333    0.20280  )
      104     C   12.0107   tau(  104) = (    0.70880    0.44003    0.29713  )
      105     H    1.0079   tau(  105) = (    0.00023    0.41525    0.03771  )
      106     N   14.0067   tau(  106) = (    0.50203    0.45658    0.18178  )
      107     C   12.0107   tau(  107) = (    0.69666    0.44372    0.03302  )
      108     H    1.0079   tau(  108) = (    0.49925    0.44085    0.08634  )
      109     H    1.0079   tau(  109) = (    0.49169    0.50757    0.00148  )
      110     C   12.0107   tau(  110) = (    0.16788    0.45212    0.19091  )
      111     H    1.0079   tau(  111) = (    0.39497    0.46007    0.04020  )
      112     C   12.0107   tau(  112) = (    0.39163    0.45274    0.31818  )
      113     C   12.0107   tau(  113) = (   -0.23865    0.47291    0.26811  )
      114     H    1.0079   tau(  114) = (   -0.17854    0.46816    0.02025  )
      115     C   12.0107   tau(  115) = (    0.50082    0.50411    0.22941  )
      116     H    1.0079   tau(  116) = (    0.17878    0.46221    0.23972  )
      117     H    1.0079   tau(  117) = (    0.35262    0.42092    0.30936  )
      118     H    1.0079   tau(  118) = (    0.54069    0.53729    0.22733  )
      119     C   12.0107   tau(  119) = (    0.10231    0.47486    0.10086  )
      120     H    1.0079   tau(  120) = (    0.72704    0.47212    0.06266  )
      121     H    1.0079   tau(  121) = (    0.71527    0.48930    0.17970  )
      122     C   12.0107   tau(  122) = (    0.49671    0.48016    0.11913  )
      123     C   12.0107   tau(  123) = (   -0.18359    0.48383    0.30051  )
      124     H    1.0079   tau(  124) = (    0.53358    0.51439    0.10636  )
      125     C   12.0107   tau(  125) = (   -0.24151    0.49489    0.20633  )
      126     O   15.9994   tau(  126) = (    0.05510    0.50161    0.07148  )
      127     O   15.9994   tau(  127) = (   -0.08462    0.50901    0.04493  )
      128     H    1.0079   tau(  128) = (    0.38176    0.49766    0.29488  )
      129     C   12.0107   tau(  129) = (   -0.13182    0.51394    0.27447  )
      130     C   12.0107   tau(  130) = (   -0.19116    0.52429    0.17903  )
      131     H    1.0079   tau(  131) = (    0.45806    0.53208    0.22209  )
      132     H    1.0079   tau(  132) = (    0.19406    0.51398    0.03130  )
      133     H    1.0079   tau(  133) = (    0.45122    0.50353    0.11348  )
      134     C   12.0107   tau(  134) = (   -0.07809    0.52536    0.31688  )
      135     H    1.0079   tau(  135) = (   -0.19360    0.54144    0.13102  )
      136     C   12.0107   tau(  136) = (   -0.13441    0.53437    0.21116  )
      137     C   12.0107   tau(  137) = (    0.08274    0.52736    0.20714  )
      138     O   15.9994   tau(  138) = (    0.10080    0.53032    0.26343  )
      139     Zn  65.3800   tau(  139) = (   -0.02642    0.52168    0.11761  )
      140     O   15.9994   tau(  140) = (   -0.02955    0.55175    0.29556  )
      141     O   15.9994   tau(  141) = (   -0.08871    0.56348    0.18152  )
      142     H    1.0079   tau(  142) = (    0.20802    0.57028    0.30083  )
      143     O   15.9994   tau(  143) = (    0.03616    0.55731    0.18589  )
      144     C   12.0107   tau(  144) = (    0.20335    0.56352    0.02282  )
      145     H    1.0079   tau(  145) = (   -0.16708    0.61904    0.26286  )
      146     Zn  65.3800   tau(  146) = (    0.06131    0.57576    0.00778  )
      147     H    1.0079   tau(  147) = (   -0.14410    0.61284    0.04948  )
      148     H    1.0079   tau(  148) = (    0.24766    0.57606    0.04603  )
      149     H    1.0079   tau(  149) = (    0.14330    0.59022    0.09235  )
      150     H    1.0079   tau(  150) = (   -0.23858    0.66794    0.33686  )
      151     N   14.0067   tau(  151) = (    0.15135    0.60150    0.04593  )
      152     H    1.0079   tau(  152) = (   -0.21507    0.66307    0.12851  )
      153     Zn  65.3800   tau(  153) = (   -0.02950    0.62443    0.22664  )
      154     O   15.9994   tau(  154) = (   -0.00124    0.61265    0.07662  )
      155     C   12.0107   tau(  155) = (   -0.16280    0.66945    0.27071  )
      156     N   14.0067   tau(  156) = (   -0.14912    0.66024    0.05324  )
      157     H    1.0079   tau(  157) = (   -0.13429    0.65519    0.14871  )
      158     C   12.0107   tau(  158) = (   -0.18966    0.68512    0.33417  )
      159     H    1.0079   tau(  159) = (   -0.18915    0.69270    0.23339  )
      160     C   12.0107   tau(  160) = (   -0.16677    0.67720    0.11575  )
      161     N   14.0067   tau(  161) = (   -0.09654    0.68797    0.26691  )
      162     H    1.0079   tau(  162) = (   -0.08186    0.68653    0.31305  )
      163     H    1.0079   tau(  163) = (    0.13902    0.65215    0.25497  )
      164     H    1.0079   tau(  164) = (    0.21714    0.63925    0.22844  )
      165     O   15.9994   tau(  165) = (    0.03780    0.65630    0.29079  )
      166     N   14.0067   tau(  166) = (    0.15269    0.66239    0.15962  )
      167     C   12.0107   tau(  167) = (    0.00189    0.66787    0.09797  )
      168     C   12.0107   tau(  168) = (    0.17009    0.66780    0.04878  )
      169     H    1.0079   tau(  169) = (    0.24057    0.65862    0.12068  )
      170     C   12.0107   tau(  170) = (    0.17524    0.66852    0.22258  )
      171     H    1.0079   tau(  171) = (    0.10996    0.68331    0.15495  )
      172     H    1.0079   tau(  172) = (    0.20466    0.67728    0.01213  )
      173     H    1.0079   tau(  173) = (   -0.19167    0.73625    0.01243  )
      174     O   15.9994   tau(  174) = (   -0.00997    0.68201    0.15429  )
      175     H    1.0079   tau(  175) = (   -0.16373    0.72829    0.12098  )
      176     C   12.0107   tau(  176) = (    0.19606    0.68350    0.11264  )
      177     H    1.0079   tau(  177) = (    0.12967    0.69775    0.03933  )
      178     C   12.0107   tau(  178) = (   -0.09131    0.75246    0.24459  )
      179     C   12.0107   tau(  179) = (    0.03767    0.71066    0.32011  )
      180     C   12.0107   tau(  180) = (    0.02155    0.71933    0.05562  )
      181     H    1.0079   tau(  181) = (    0.18814    0.71706    0.23568  )
      182     H    1.0079   tau(  182) = (   -0.12500    0.78344    0.26832  )
      183     H    1.0079   tau(  183) = (    0.20681    0.73423    0.11494  )
      184     H    1.0079   tau(  184) = (   -0.04415    0.77019    0.25319  )
      185     H    1.0079   tau(  185) = (   -0.09966    0.75359    0.19411  )
      186     H    1.0079   tau(  186) = (    0.06919    0.75681    0.23743  )
      187     C   12.0107   tau(  187) = (    0.05678    0.76401    0.28640  )
      188     C   12.0107   tau(  188) = (    0.02598    0.77918    0.08162  )
      189     H    1.0079   tau(  189) = (    0.01236    0.78388    0.13057  )
      190     C   12.0107   tau(  190) = (    0.06011    0.82232    0.31336  )
      191     C   12.0107   tau(  191) = (    0.04467    0.83135    0.04791  )
      192     H    1.0079   tau(  192) = (    0.07554    0.86223    0.28549  )

     Computing dynamical matrix for 
                    q = (   0.0000000   0.0000000   0.0000000 )
 
      2 Sym.Ops. (with q -> -q+G )


     G cutoff =20008.8629  ( 210830 G-vectors)     FFT grid: (288,288, 96)
     G cutoff =14172.9445  ( 125654 G-vectors)  smooth grid: (240,240, 80)

     number of k points=     2  Marzari-Vanderbilt smearing, width (Ry)=  0.0220
                       cart. coord. in units 2pi/alat
        k(    1) = (   0.0000000   0.0000000   0.0000000), wk =   1.0000000
        k(    2) = (   0.0000000   0.0000000  -1.5219307), wk =   1.0000000

     PseudoPot. # 1 for C  read from file:
     ./pseudo/C.pbesol-n-kjpaw_psl.1.0.0.UPF
     MD5 check sum: 5f3a56537b2bcef3348431d8311bb923
     Pseudo is Projector augmented-wave + core cor, Zval =  4.0
     Generated using "atomic" code by A. Dal Corso  v.6.0 svn rev. 13079
     Shape of augmentation charge: PSQ
     Using radial grid of 1073 points,  4 beta functions with: 
                l(1) =   0
                l(2) =   0
                l(3) =   1
                l(4) =   1
     Q(r) pseudized with 0 coefficients 


     PseudoPot. # 2 for H  read from file:
     ./pseudo/H.pbesol-rrkjus_psl.1.0.0.UPF
     MD5 check sum: 0324ed591cc0147dc3d88cad0d33f665
     Pseudo is Ultrasoft, Zval =  1.0
     Generated using "atomic" code by A. Dal Corso  v.6.0 svn rev. 13079
     Using radial grid of  929 points,  2 beta functions with: 
                l(1) =   0
                l(2) =   0
     Q(r) pseudized with 0 coefficients 


     PseudoPot. # 3 for Zn read from file:
     ./pseudo/zn_pbesol_v1.uspp.F.UPF
     MD5 check sum: 7d8615e52efe7c1e2b1899de8658bae2
     Pseudo is Ultrasoft, Zval = 20.0
     Generated by new atomic code, or converted to UPF format
     Using radial grid of  943 points,  6 beta functions with: 
                l(1) =   0
                l(2) =   0
                l(3) =   1
                l(4) =   1
                l(5) =   2
                l(6) =   2
     Q(r) pseudized with  8 coefficients,  rinner =    1.100   1.100   1.100
                                                       1.100   1.100

     PseudoPot. # 4 for N  read from file:
     ./pseudo/N.pbesol-theos.UPF
     MD5 check sum: 1b64827339d390a5a22afef3ff345c9d
     Pseudo is Ultrasoft + core correction, Zval =  5.0
     Generated using "atomic" code by A. Dal Corso  v.5.1
     Using radial grid of 1085 points,  4 beta functions with: 
                l(1) =   0
                l(2) =   0
                l(3) =   1
                l(4) =   1
     Q(r) pseudized with 0 coefficients 


     PseudoPot. # 5 for O  read from file:
     ./pseudo/O.pbesol-n-kjpaw_psl.0.1.UPF
     MD5 check sum: 81d73d1479e654e5638b0319f0d6c2c7
     Pseudo is Projector augmented-wave + core cor, Zval =  6.0
     Generated using "atomic" code by A. Dal Corso  v.6.0 svn rev. 13079
     Shape of augmentation charge: BESSEL
     Using radial grid of 1095 points,  4 beta functions with: 
                l(1) =   0
                l(2) =   0
                l(3) =   1
                l(4) =   1
     Q(r) pseudized with 0 coefficients 


     Mode symmetry, C_1 (1)     point group:


     Atomic displacements:
     There are  576 irreducible representations

     Representation     1      1 modes -  To be done

     Representation     2      1 modes -  To be done

     Representation     3      1 modes -  To be done

     Representation     4      1 modes -  To be done

     Representation     5      1 modes -  To be done

     Representation     6      1 modes -  To be done

     Representation     7      1 modes -  To be done

     Representation     8      1 modes -  To be done

     Representation     9      1 modes -  To be done

     Representation    10      1 modes -  To be done

     Representation    11      1 modes -  To be done

     Representation    12      1 modes -  To be done

     Representation    13      1 modes -  To be done

     Representation    14      1 modes -  To be done

     Representation    15      1 modes -  To be done

     Representation    16      1 modes -  To be done

     Representation    17      1 modes -  To be done

     Representation    18      1 modes -  To be done

     Representation    19      1 modes -  To be done

     Representation    20      1 modes -  To be done

     Representation    21      1 modes -  To be done

     Representation    22      1 modes -  To be done

     Representation    23      1 modes -  To be done

     Representation    24      1 modes -  To be done

     Representation    25      1 modes -  To be done

     Representation    26      1 modes -  To be done

     Representation    27      1 modes -  To be done

     Representation    28      1 modes -  To be done

     Representation    29      1 modes -  To be done

     Representation    30      1 modes -  To be done

     Representation    31      1 modes -  To be done

     Representation    32      1 modes -  To be done

     Representation    33      1 modes -  To be done

     Representation    34      1 modes -  To be done

     Representation    35      1 modes -  To be done

     Representation    36      1 modes -  To be done

     Representation    37      1 modes -  To be done

     Representation    38      1 modes -  To be done

     Representation    39      1 modes -  To be done

     Representation    40      1 modes -  To be done

     Representation    41      1 modes -  To be done

     Representation    42      1 modes -  To be done

     Representation    43      1 modes -  To be done

     Representation    44      1 modes -  To be done

     Representation    45      1 modes -  To be done

     Representation    46      1 modes -  To be done

     Representation    47      1 modes -  To be done

     Representation    48      1 modes -  To be done

     Representation    49      1 modes -  To be done

     Representation    50      1 modes -  To be done

     Representation    51      1 modes -  To be done

     Representation    52      1 modes -  To be done

     Representation    53      1 modes -  To be done

     Representation    54      1 modes -  To be done

     Representation    55      1 modes -  To be done

     Representation    56      1 modes -  To be done

     Representation    57      1 modes -  To be done

     Representation    58      1 modes -  To be done

     Representation    59      1 modes -  To be done

     Representation    60      1 modes -  To be done

     Representation    61      1 modes -  To be done

     Representation    62      1 modes -  To be done

     Representation    63      1 modes -  To be done

     Representation    64      1 modes -  To be done

     Representation    65      1 modes -  To be done

     Representation    66      1 modes -  To be done

     Representation    67      1 modes -  To be done

     Representation    68      1 modes -  To be done

     Representation    69      1 modes -  To be done

     Representation    70      1 modes -  To be done

     Representation    71      1 modes -  To be done

     Representation    72      1 modes -  To be done

     Representation    73      1 modes -  To be done

     Representation    74      1 modes -  To be done

     Representation    75      1 modes -  To be done

     Representation    76      1 modes -  To be done

     Representation    77      1 modes -  To be done

     Representation    78      1 modes -  To be done

     Representation    79      1 modes -  To be done

     Representation    80      1 modes -  To be done

     Representation    81      1 modes -  To be done

     Representation    82      1 modes -  To be done

     Representation    83      1 modes -  To be done

     Representation    84      1 modes -  To be done

     Representation    85      1 modes -  To be done

     Representation    86      1 modes -  To be done

     Representation    87      1 modes -  To be done

     Representation    88      1 modes -  To be done

     Representation    89      1 modes -  To be done

     Representation    90      1 modes -  To be done

     Representation    91      1 modes -  To be done

     Representation    92      1 modes -  To be done

     Representation    93      1 modes -  To be done

     Representation    94      1 modes -  To be done

     Representation    95      1 modes -  To be done

     Representation    96      1 modes -  To be done

     Representation    97      1 modes -  To be done

     Representation    98      1 modes -  To be done

     Representation    99      1 modes -  To be done

     Representation   100      1 modes -  To be done

     Representation   101      1 modes -  To be done

     Representation   102      1 modes -  To be done

     Representation   103      1 modes -  To be done

     Representation   104      1 modes -  To be done

     Representation   105      1 modes -  To be done

     Representation   106      1 modes -  To be done

     Representation   107      1 modes -  To be done

     Representation   108      1 modes -  To be done

     Representation   109      1 modes -  To be done

     Representation   110      1 modes -  To be done

     Representation   111      1 modes -  To be done

     Representation   112      1 modes -  To be done

     Representation   113      1 modes -  To be done

     Representation   114      1 modes -  To be done

     Representation   115      1 modes -  To be done

     Representation   116      1 modes -  To be done

     Representation   117      1 modes -  To be done

     Representation   118      1 modes -  To be done

     Representation   119      1 modes -  To be done

     Representation   120      1 modes -  To be done

     Representation   121      1 modes -  To be done

     Representation   122      1 modes -  To be done

     Representation   123      1 modes -  To be done

     Representation   124      1 modes -  To be done

     Representation   125      1 modes -  To be done

     Representation   126      1 modes -  To be done

     Representation   127      1 modes -  To be done

     Representation   128      1 modes -  To be done

     Representation   129      1 modes -  To be done

     Representation   130      1 modes -  To be done

     Representation   131      1 modes -  To be done

     Representation   132      1 modes -  To be done

     Representation   133      1 modes -  To be done

     Representation   134      1 modes -  To be done

     Representation   135      1 modes -  To be done

     Representation   136      1 modes -  To be done

     Representation   137      1 modes -  To be done

     Representation   138      1 modes -  To be done

     Representation   139      1 modes -  To be done

     Representation   140      1 modes -  To be done

     Representation   141      1 modes -  To be done

     Representation   142      1 modes -  To be done

     Representation   143      1 modes -  To be done

     Representation   144      1 modes -  To be done

     Representation   145      1 modes -  To be done

     Representation   146      1 modes -  To be done

     Representation   147      1 modes -  To be done

     Representation   148      1 modes -  To be done

     Representation   149      1 modes -  To be done

     Representation   150      1 modes -  To be done

     Representation   151      1 modes -  To be done

     Representation   152      1 modes -  To be done

     Representation   153      1 modes -  To be done

     Representation   154      1 modes -  To be done

     Representation   155      1 modes -  To be done

     Representation   156      1 modes -  To be done

     Representation   157      1 modes -  To be done

     Representation   158      1 modes -  To be done

     Representation   159      1 modes -  To be done

     Representation   160      1 modes -  To be done

     Representation   161      1 modes -  To be done

     Representation   162      1 modes -  To be done

     Representation   163      1 modes -  To be done

     Representation   164      1 modes -  To be done

     Representation   165      1 modes -  To be done

     Representation   166      1 modes -  To be done

     Representation   167      1 modes -  To be done

     Representation   168      1 modes -  To be done

     Representation   169      1 modes -  To be done

     Representation   170      1 modes -  To be done

     Representation   171      1 modes -  To be done

     Representation   172      1 modes -  To be done

     Representation   173      1 modes -  To be done

     Representation   174      1 modes -  To be done

     Representation   175      1 modes -  To be done

     Representation   176      1 modes -  To be done

     Representation   177      1 modes -  To be done

     Representation   178      1 modes -  To be done

     Representation   179      1 modes -  To be done

     Representation   180      1 modes -  To be done

     Representation   181      1 modes -  To be done

     Representation   182      1 modes -  To be done

     Representation   183      1 modes -  To be done

     Representation   184      1 modes -  To be done

     Representation   185      1 modes -  To be done

     Representation   186      1 modes -  To be done

     Representation   187      1 modes -  To be done

     Representation   188      1 modes -  To be done

     Representation   189      1 modes -  To be done

     Representation   190      1 modes -  To be done

     Representation   191      1 modes -  To be done

     Representation   192      1 modes -  To be done

     Representation   193      1 modes -  To be done

     Representation   194      1 modes -  To be done

     Representation   195      1 modes -  To be done

     Representation   196      1 modes -  To be done

     Representation   197      1 modes -  To be done

     Representation   198      1 modes -  To be done

     Representation   199      1 modes -  To be done

     Representation   200      1 modes -  To be done

     Representation   201      1 modes -  To be done

     Representation   202      1 modes -  To be done

     Representation   203      1 modes -  To be done

     Representation   204      1 modes -  To be done

     Representation   205      1 modes -  To be done

     Representation   206      1 modes -  To be done

     Representation   207      1 modes -  To be done

     Representation   208      1 modes -  To be done

     Representation   209      1 modes -  To be done

     Representation   210      1 modes -  To be done

     Representation   211      1 modes -  To be done

     Representation   212      1 modes -  To be done

     Representation   213      1 modes -  To be done

     Representation   214      1 modes -  To be done

     Representation   215      1 modes -  To be done

     Representation   216      1 modes -  To be done

     Representation   217      1 modes -  To be done

     Representation   218      1 modes -  To be done

     Representation   219      1 modes -  To be done

     Representation   220      1 modes -  To be done

     Representation   221      1 modes -  To be done

     Representation   222      1 modes -  To be done

     Representation   223      1 modes -  To be done

     Representation   224      1 modes -  To be done

     Representation   225      1 modes -  To be done

     Representation   226      1 modes -  To be done

     Representation   227      1 modes -  To be done

     Representation   228      1 modes -  To be done

     Representation   229      1 modes -  To be done

     Representation   230      1 modes -  To be done

     Representation   231      1 modes -  To be done

     Representation   232      1 modes -  To be done

     Representation   233      1 modes -  To be done

     Representation   234      1 modes -  To be done

     Representation   235      1 modes -  To be done

     Representation   236      1 modes -  To be done

     Representation   237      1 modes -  To be done

     Representation   238      1 modes -  To be done

     Representation   239      1 modes -  To be done

     Representation   240      1 modes -  To be done

     Representation   241      1 modes -  To be done

     Representation   242      1 modes -  To be done

     Representation   243      1 modes -  To be done

     Representation   244      1 modes -  To be done

     Representation   245      1 modes -  To be done

     Representation   246      1 modes -  To be done

     Representation   247      1 modes -  To be done

     Representation   248      1 modes -  To be done

     Representation   249      1 modes -  To be done

     Representation   250      1 modes -  To be done

     Representation   251      1 modes -  To be done

     Representation   252      1 modes -  To be done

     Representation   253      1 modes -  To be done

     Representation   254      1 modes -  To be done

     Representation   255      1 modes -  To be done

     Representation   256      1 modes -  To be done

     Representation   257      1 modes -  To be done

     Representation   258      1 modes -  To be done

     Representation   259      1 modes -  To be done

     Representation   260      1 modes -  To be done

     Representation   261      1 modes -  To be done

     Representation   262      1 modes -  To be done

     Representation   263      1 modes -  To be done

     Representation   264      1 modes -  To be done

     Representation   265      1 modes -  To be done

     Representation   266      1 modes -  To be done

     Representation   267      1 modes -  To be done

     Representation   268      1 modes -  To be done

     Representation   269      1 modes -  To be done

     Representation   270      1 modes -  To be done

     Representation   271      1 modes -  To be done

     Representation   272      1 modes -  To be done

     Representation   273      1 modes -  To be done

     Representation   274      1 modes -  To be done

     Representation   275      1 modes -  To be done

     Representation   276      1 modes -  To be done

     Representation   277      1 modes -  To be done

     Representation   278      1 modes -  To be done

     Representation   279      1 modes -  To be done

     Representation   280      1 modes -  To be done

     Representation   281      1 modes -  To be done

     Representation   282      1 modes -  To be done

     Representation   283      1 modes -  To be done

     Representation   284      1 modes -  To be done

     Representation   285      1 modes -  To be done

     Representation   286      1 modes -  To be done

     Representation   287      1 modes -  To be done

     Representation   288      1 modes -  To be done

     Representation   289      1 modes -  To be done

     Representation   290      1 modes -  To be done

     Representation   291      1 modes -  To be done

     Representation   292      1 modes -  To be done

     Representation   293      1 modes -  To be done

     Representation   294      1 modes -  To be done

     Representation   295      1 modes -  To be done

     Representation   296      1 modes -  To be done

     Representation   297      1 modes -  To be done

     Representation   298      1 modes -  To be done

     Representation   299      1 modes -  To be done

     Representation   300      1 modes -  To be done

     Representation   301      1 modes -  To be done

     Representation   302      1 modes -  To be done

     Representation   303      1 modes -  To be done

     Representation   304      1 modes -  To be done

     Representation   305      1 modes -  To be done

     Representation   306      1 modes -  To be done

     Representation   307      1 modes -  To be done

     Representation   308      1 modes -  To be done

     Representation   309      1 modes -  To be done

     Representation   310      1 modes -  To be done

     Representation   311      1 modes -  To be done

     Representation   312      1 modes -  To be done

     Representation   313      1 modes -  To be done

     Representation   314      1 modes -  To be done

     Representation   315      1 modes -  To be done

     Representation   316      1 modes -  To be done

     Representation   317      1 modes -  To be done

     Representation   318      1 modes -  To be done

     Representation   319      1 modes -  To be done

     Representation   320      1 modes -  To be done

     Representation   321      1 modes -  To be done

     Representation   322      1 modes -  To be done

     Representation   323      1 modes -  To be done

     Representation   324      1 modes -  To be done

     Representation   325      1 modes -  To be done

     Representation   326      1 modes -  To be done

     Representation   327      1 modes -  To be done

     Representation   328      1 modes -  To be done

     Representation   329      1 modes -  To be done

     Representation   330      1 modes -  To be done

     Representation   331      1 modes -  To be done

     Representation   332      1 modes -  To be done

     Representation   333      1 modes -  To be done

     Representation   334      1 modes -  To be done

     Representation   335      1 modes -  To be done

     Representation   336      1 modes -  To be done

     Representation   337      1 modes -  To be done

     Representation   338      1 modes -  To be done

     Representation   339      1 modes -  To be done

     Representation   340      1 modes -  To be done

     Representation   341      1 modes -  To be done

     Representation   342      1 modes -  To be done

     Representation   343      1 modes -  To be done

     Representation   344      1 modes -  To be done

     Representation   345      1 modes -  To be done

     Representation   346      1 modes -  To be done

     Representation   347      1 modes -  To be done

     Representation   348      1 modes -  To be done

     Representation   349      1 modes -  To be done

     Representation   350      1 modes -  To be done

     Representation   351      1 modes -  To be done

     Representation   352      1 modes -  To be done

     Representation   353      1 modes -  To be done

     Representation   354      1 modes -  To be done

     Representation   355      1 modes -  To be done

     Representation   356      1 modes -  To be done

     Representation   357      1 modes -  To be done

     Representation   358      1 modes -  To be done

     Representation   359      1 modes -  To be done

     Representation   360      1 modes -  To be done

     Representation   361      1 modes -  To be done

     Representation   362      1 modes -  To be done

     Representation   363      1 modes -  To be done

     Representation   364      1 modes -  To be done

     Representation   365      1 modes -  To be done

     Representation   366      1 modes -  To be done

     Representation   367      1 modes -  To be done

     Representation   368      1 modes -  To be done

     Representation   369      1 modes -  To be done

     Representation   370      1 modes -  To be done

     Representation   371      1 modes -  To be done

     Representation   372      1 modes -  To be done

     Representation   373      1 modes -  To be done

     Representation   374      1 modes -  To be done

     Representation   375      1 modes -  To be done

     Representation   376      1 modes -  To be done

     Representation   377      1 modes -  To be done

     Representation   378      1 modes -  To be done

     Representation   379      1 modes -  To be done

     Representation   380      1 modes -  To be done

     Representation   381      1 modes -  To be done

     Representation   382      1 modes -  To be done

     Representation   383      1 modes -  To be done

     Representation   384      1 modes -  To be done

     Representation   385      1 modes -  To be done

     Representation   386      1 modes -  To be done

     Representation   387      1 modes -  To be done

     Representation   388      1 modes -  To be done

     Representation   389      1 modes -  To be done

     Representation   390      1 modes -  To be done

     Representation   391      1 modes -  To be done

     Representation   392      1 modes -  To be done

     Representation   393      1 modes -  To be done

     Representation   394      1 modes -  To be done

     Representation   395      1 modes -  To be done

     Representation   396      1 modes -  To be done

     Representation   397      1 modes -  To be done

     Representation   398      1 modes -  To be done

     Representation   399      1 modes -  To be done

     Representation   400      1 modes -  To be done

     Representation   401      1 modes -  To be done

     Representation   402      1 modes -  To be done

     Representation   403      1 modes -  To be done

     Representation   404      1 modes -  To be done

     Representation   405      1 modes -  To be done

     Representation   406      1 modes -  To be done

     Representation   407      1 modes -  To be done

     Representation   408      1 modes -  To be done

     Representation   409      1 modes -  To be done

     Representation   410      1 modes -  To be done

     Representation   411      1 modes -  To be done

     Representation   412      1 modes -  To be done

     Representation   413      1 modes -  To be done

     Representation   414      1 modes -  To be done

     Representation   415      1 modes -  To be done

     Representation   416      1 modes -  To be done

     Representation   417      1 modes -  To be done

     Representation   418      1 modes -  To be done

     Representation   419      1 modes -  To be done

     Representation   420      1 modes -  To be done

     Representation   421      1 modes -  To be done

     Representation   422      1 modes -  To be done

     Representation   423      1 modes -  To be done

     Representation   424      1 modes -  To be done

     Representation   425      1 modes -  To be done

     Representation   426      1 modes -  To be done

     Representation   427      1 modes -  To be done

     Representation   428      1 modes -  To be done

     Representation   429      1 modes -  To be done

     Representation   430      1 modes -  To be done

     Representation   431      1 modes -  To be done

     Representation   432      1 modes -  To be done

     Representation   433      1 modes -  To be done

     Representation   434      1 modes -  To be done

     Representation   435      1 modes -  To be done

     Representation   436      1 modes -  To be done

     Representation   437      1 modes -  To be done

     Representation   438      1 modes -  To be done

     Representation   439      1 modes -  To be done

     Representation   440      1 modes -  To be done

     Representation   441      1 modes -  To be done

     Representation   442      1 modes -  To be done

     Representation   443      1 modes -  To be done

     Representation   444      1 modes -  To be done

     Representation   445      1 modes -  To be done

     Representation   446      1 modes -  To be done

     Representation   447      1 modes -  To be done

     Representation   448      1 modes -  To be done

     Representation   449      1 modes -  To be done

     Representation   450      1 modes -  To be done

     Representation   451      1 modes -  To be done

     Representation   452      1 modes -  To be done

     Representation   453      1 modes -  To be done

     Representation   454      1 modes -  To be done

     Representation   455      1 modes -  To be done

     Representation   456      1 modes -  To be done

     Representation   457      1 modes -  To be done

     Representation   458      1 modes -  To be done

     Representation   459      1 modes -  To be done

     Representation   460      1 modes -  To be done

     Representation   461      1 modes -  To be done

     Representation   462      1 modes -  To be done

     Representation   463      1 modes -  To be done

     Representation   464      1 modes -  To be done

     Representation   465      1 modes -  To be done

     Representation   466      1 modes -  To be done

     Representation   467      1 modes -  To be done

     Representation   468      1 modes -  To be done

     Representation   469      1 modes -  To be done

     Representation   470      1 modes -  To be done

     Representation   471      1 modes -  To be done

     Representation   472      1 modes -  To be done

     Representation   473      1 modes -  To be done

     Representation   474      1 modes -  To be done

     Representation   475      1 modes -  To be done

     Representation   476      1 modes -  To be done

     Representation   477      1 modes -  To be done

     Representation   478      1 modes -  To be done

     Representation   479      1 modes -  To be done

     Representation   480      1 modes -  To be done

     Representation   481      1 modes -  To be done

     Representation   482      1 modes -  To be done

     Representation   483      1 modes -  To be done

     Representation   484      1 modes -  To be done

     Representation   485      1 modes -  To be done

     Representation   486      1 modes -  To be done

     Representation   487      1 modes -  To be done

     Representation   488      1 modes -  To be done

     Representation   489      1 modes -  To be done

     Representation   490      1 modes -  To be done

     Representation   491      1 modes -  To be done

     Representation   492      1 modes -  To be done

     Representation   493      1 modes -  To be done

     Representation   494      1 modes -  To be done

     Representation   495      1 modes -  To be done

     Representation   496      1 modes -  To be done

     Representation   497      1 modes -  To be done

     Representation   498      1 modes -  To be done

     Representation   499      1 modes -  To be done

     Representation   500      1 modes -  To be done

     Representation   501      1 modes -  To be done

     Representation   502      1 modes -  To be done

     Representation   503      1 modes -  To be done

     Representation   504      1 modes -  To be done

     Representation   505      1 modes -  To be done

     Representation   506      1 modes -  To be done

     Representation   507      1 modes -  To be done

     Representation   508      1 modes -  To be done

     Representation   509      1 modes -  To be done

     Representation   510      1 modes -  To be done

     Representation   511      1 modes -  To be done

     Representation   512      1 modes -  To be done

     Representation   513      1 modes -  To be done

     Representation   514      1 modes -  To be done

     Representation   515      1 modes -  To be done

     Representation   516      1 modes -  To be done

     Representation   517      1 modes -  To be done

     Representation   518      1 modes -  To be done

     Representation   519      1 modes -  To be done

     Representation   520      1 modes -  To be done

     Representation   521      1 modes -  To be done

     Representation   522      1 modes -  To be done

     Representation   523      1 modes -  To be done

     Representation   524      1 modes -  To be done

     Representation   525      1 modes -  To be done

     Representation   526      1 modes -  To be done

     Representation   527      1 modes -  To be done

     Representation   528      1 modes -  To be done

     Representation   529      1 modes -  To be done

     Representation   530      1 modes -  To be done

     Representation   531      1 modes -  To be done

     Representation   532      1 modes -  To be done

     Representation   533      1 modes -  To be done

     Representation   534      1 modes -  To be done

     Representation   535      1 modes -  To be done

     Representation   536      1 modes -  To be done

     Representation   537      1 modes -  To be done

     Representation   538      1 modes -  To be done

     Representation   539      1 modes -  To be done

     Representation   540      1 modes -  To be done

     Representation   541      1 modes -  To be done

     Representation   542      1 modes -  To be done

     Representation   543      1 modes -  To be done

     Representation   544      1 modes -  To be done

     Representation   545      1 modes -  To be done

     Representation   546      1 modes -  To be done

     Representation   547      1 modes -  To be done

     Representation   548      1 modes -  To be done

     Representation   549      1 modes -  To be done

     Representation   550      1 modes -  To be done

     Representation   551      1 modes -  To be done

     Representation   552      1 modes -  To be done

     Representation   553      1 modes -  To be done

     Representation   554      1 modes -  To be done

     Representation   555      1 modes -  To be done

     Representation   556      1 modes -  To be done

     Representation   557      1 modes -  To be done

     Representation   558      1 modes -  To be done

     Representation   559      1 modes -  To be done

     Representation   560      1 modes -  To be done

     Representation   561      1 modes -  To be done

     Representation   562      1 modes -  To be done

     Representation   563      1 modes -  To be done

     Representation   564      1 modes -  To be done

     Representation   565      1 modes -  To be done

     Representation   566      1 modes -  To be done

     Representation   567      1 modes -  To be done

     Representation   568      1 modes -  To be done

     Representation   569      1 modes -  To be done

     Representation   570      1 modes -  To be done

     Representation   571      1 modes -  To be done

     Representation   572      1 modes -  To be done

     Representation   573      1 modes -  To be done

     Representation   574      1 modes -  To be done

     Representation   575      1 modes -  To be done

     Representation   576      1 modes -  To be done


