
     Program PWSCF v.7.0 starts on 30Aug2023 at  4:37:40 

     This program is part of the open-source Quantum ESPRESSO suite
     for quantum simulation of materials; please cite
         "P. Giannozzi et al., J. Phys.:Condens. Matter 21 395502 (2009);
         "P. Giannozzi et al., J. Phys.:Condens. Matter 29 465901 (2017);
         "P. Giannozzi et al., J. Chem. Phys. 152 154105 (2020);
          URL http://www.quantum-espresso.org", 
     in publications or presentations arising from this work. More details at
     http://www.quantum-espresso.org/quote

     Parallel version (MPI & OpenMP), running on      64 processor cores
     Number of MPI processes:                64
     Threads/MPI process:                     1

     MPI processes distributed on    16 nodes
     K-points division:     npool     =       4
     R & G space division:  proc/nbgrp/npool/nimage =      16
     240334 MiB available memory on the printing compute node when the environment starts
 
     Reading input from pw.in

     Current dimensions of program PWSCF are:
     Max number of different atomic species (ntypx) = 10
     Max number of k-points (npk) =  40000
     Max angular momentum in pseudopotentials (lmaxx) =  4
     Message from routine iosys:
     restart disabled: needed files not found
     file C.pbesol-n-kjpaw_psl.1.0.0.UPF: wavefunction(s)  2S 2P renormalized
     file O.pbesol-n-kjpaw_psl.0.1.UPF: wavefunction(s)  2P renormalized

     -------------------------------------------------
     Parameters for Dispersion (Grimme-D2) Correction:
     -------------------------------------------------
       atom      VdW radius       C_6     

        C          2.744         60.710
        H          1.892          4.857
        Zn         2.952        374.666
        N          2.640         42.670
        O          2.536         24.284
     Message from routine divide_et_impera:
     suboptimal parallelization: some nodes have no k-points

     Subspace diagonalization in iterative solution of the eigenvalue problem:
     a serial algorithm will be used

 
     Parallelization info
     --------------------
     sticks:   dense  smooth     PW     G-vecs:    dense   smooth      PW
     Min        3402    2408    633               210829   125653   16933
     Max        3404    2410    634               210830   125654   16934
     Sum       54445   38545  10141              3373269  2010451  270941
 
     Using Slab Decomposition
 


     bravais-lattice index     =            4
     lattice parameter (alat)  =      40.5668  a.u.
     unit-cell volume          =   18994.0302 (a.u.)^3
     number of atoms/cell      =          192
     number of atomic types    =            5
     number of electrons       =       642.00
     number of Kohn-Sham states=          385
     kinetic-energy cutoff     =      85.0000  Ry
     charge density cutoff     =     480.0000  Ry
     scf convergence threshold =      1.7E-08
     mixing beta               =       0.4000
     number of iterations used =            8  plain     mixing
     Exchange-correlation= SLA  PW   PSX  PSC
                           (   1   4  10   8   0   0   0)

     GPU acceleration is ACTIVE.

     Message from routine print_cuda_info:
     High GPU oversubscription detected. Are you sure this is what you want?

     GPU used by master process:

        Device Number: 0
        Device name: NVIDIA A100-SXM4-40GB
        Compute capability : 80
        Ratio of single to double precision performance  : 2
        Memory Clock Rate (KHz): 1215000
        Memory Bus Width (bits): 5120
        Peak Memory Bandwidth (GB/s): ******

     celldm(1)=  40.566772  celldm(2)=   1.000000  celldm(3)=   0.328530
     celldm(4)=   0.000000  celldm(5)=   0.000000  celldm(6)=   0.000000

     crystal axes: (cart. coord. in units of alat)
               a(1) = (   1.000000   0.000000   0.000000 )  
               a(2) = (  -0.500000   0.866025   0.000000 )  
               a(3) = (   0.000000   0.000000   0.328530 )  

     reciprocal axes: (cart. coord. in units 2 pi/alat)
               b(1) = (  1.000000  0.577350 -0.000000 )  
               b(2) = (  0.000000  1.154701  0.000000 )  
               b(3) = (  0.000000 -0.000000  3.043861 )  


     PseudoPot. # 1 for C  read from file:
     ./pseudo/C.pbesol-n-kjpaw_psl.1.0.0.UPF
     MD5 check sum: 5f3a56537b2bcef3348431d8311bb923
     Pseudo is Projector augmented-wave + core cor, Zval =  4.0
     Generated using "atomic" code by A. Dal Corso  v.6.0 svn rev. 13079
     Shape of augmentation charge: PSQ
     Using radial grid of 1073 points,  4 beta functions with: 
                l(1) =   0
                l(2) =   0
                l(3) =   1
                l(4) =   1
     Q(r) pseudized with 0 coefficients 


     PseudoPot. # 2 for H  read from file:
     ./pseudo/H.pbesol-rrkjus_psl.1.0.0.UPF
     MD5 check sum: 0324ed591cc0147dc3d88cad0d33f665
     Pseudo is Ultrasoft, Zval =  1.0
     Generated using "atomic" code by A. Dal Corso  v.6.0 svn rev. 13079
     Using radial grid of  929 points,  2 beta functions with: 
                l(1) =   0
                l(2) =   0
     Q(r) pseudized with 0 coefficients 


     PseudoPot. # 3 for Zn read from file:
     ./pseudo/zn_pbesol_v1.uspp.F.UPF
     MD5 check sum: 7d8615e52efe7c1e2b1899de8658bae2
     Pseudo is Ultrasoft, Zval = 20.0
     Generated by new atomic code, or converted to UPF format
     Using radial grid of  943 points,  6 beta functions with: 
                l(1) =   0
                l(2) =   0
                l(3) =   1
                l(4) =   1
                l(5) =   2
                l(6) =   2
     Q(r) pseudized with  8 coefficients,  rinner =    1.100   1.100   1.100
                                                       1.100   1.100

     PseudoPot. # 4 for N  read from file:
     ./pseudo/N.pbesol-theos.UPF
     MD5 check sum: 1b64827339d390a5a22afef3ff345c9d
     Pseudo is Ultrasoft + core correction, Zval =  5.0
     Generated using "atomic" code by A. Dal Corso  v.5.1
     Using radial grid of 1085 points,  4 beta functions with: 
                l(1) =   0
                l(2) =   0
                l(3) =   1
                l(4) =   1
     Q(r) pseudized with 0 coefficients 


     PseudoPot. # 5 for O  read from file:
     ./pseudo/O.pbesol-n-kjpaw_psl.0.1.UPF
     MD5 check sum: 81d73d1479e654e5638b0319f0d6c2c7
     Pseudo is Projector augmented-wave + core cor, Zval =  6.0
     Generated using "atomic" code by A. Dal Corso  v.6.0 svn rev. 13079
     Shape of augmentation charge: BESSEL
     Using radial grid of 1095 points,  4 beta functions with: 
                l(1) =   0
                l(2) =   0
                l(3) =   1
                l(4) =   1
     Q(r) pseudized with 0 coefficients 


     atomic species   valence    mass     pseudopotential
        C              4.00    12.01070     C ( 1.00)
        H              1.00     1.00794     H ( 1.00)
        Zn            20.00    65.38000     Zn( 1.00)
        N              5.00    14.00670     N ( 1.00)
        O              6.00    15.99940     O ( 1.00)

     No symmetry found


                                    s                        frac. trans.

      isym =  1     identity                                     

 cryst.   s( 1) = (     1          0          0      )
                  (     0          1          0      )
                  (     0          0          1      )

 cart.    s( 1) = (  1.0000000  0.0000000  0.0000000 )
                  (  0.0000000  1.0000000  0.0000000 )
                  (  0.0000000  0.0000000  1.0000000 )


     point group C_1 (1)    
     there are  1 classes
     the character table:

       E    
A      1.00

     the symmetry operations in each class and the name of the first element:

     E        1
          identity                                               

   Cartesian axes

     site n.     atom                  positions (alat units)
         1           C   tau(   1) = (   0.1179613   0.4851500   0.1647353  )
         2           H   tau(   2) = (   0.0837591   0.8638067   0.1651322  )
         3           C   tau(   3) = (   0.5460969   0.0275891   0.0763722  )
         4           C   tau(   4) = (   0.5661482   0.0373350   0.1380313  )
         5           H   tau(   5) = (   0.5100115   0.0745011   0.3235479  )
         6           C   tau(   6) = (   0.5261380   0.0795245   0.0431516  )
         7           C   tau(   7) = (   0.5643822   0.0959871   0.1645275  )
         8           H   tau(   8) = (   0.4611610   0.0871061   0.1973334  )
         9           H   tau(   9) = (   0.5797148   0.1039255   0.2125299  )
        10           H   tau(  10) = (   0.3812203   0.0701417   0.1808971  )
        11           H   tau(  11) = (   0.6168093   0.1912154   0.0117040  )
        12           H   tau(  12) = (   0.6995505   0.1990012   0.0186360  )
        13           C   tau(  13) = (   0.4130397   0.1023229   0.2055778  )
        14           C   tau(  14) = (   0.5230270   0.1395919   0.0686780  )
        15           H   tau(  15) = (   0.6528114   0.2639000  -0.0062582  )
        16           C   tau(  16) = (   0.5413462   0.1486676   0.1321281  )
        17           C   tau(  17) = (   0.6544404   0.2232643   0.0250091  )
        18           H   tau(  18) = (   0.4041259   0.0999847   0.2559371  )
        19           H   tau(  19) = (   0.3383207   0.1254340   0.0020228  )
        20           H   tau(  20) = (   0.3108102   0.1159873   0.1105788  )
        21           O   tau(  21) = (   0.4871744   0.1750523   0.2992609  )
        22           H   tau(  22) = (   0.7663968   0.1157586   0.1847716  )
        23           H   tau(  23) = (   0.7654285   0.2002711   0.1075771  )
        24           C   tau(  24) = (   0.5001989   0.1899000   0.0264152  )
        25           H   tau(  25) = (   0.4192867   0.1695970   0.1381144  )
        26           N   tau(  26) = (   0.4049909   0.1668768   0.1843163  )
        27           O   tau(  27) = (   0.5384579   0.2024080   0.1624581  )
        28           H   tau(  28) = (   0.3129065   0.1582931   0.2184535  )
        29           H   tau(  29) = (   0.6429039   0.2058160   0.1181646  )
        30           N   tau(  30) = (   0.6457663   0.2444562   0.0893085  )
        31           C   tau(  31) = (   0.3337332   0.1763837   0.0075433  )
        32           C   tau(  32) = (   0.3113367   0.1670932   0.1177726  )
        33           H   tau(  33) = (   0.3656599   0.1994095   0.3032780  )
        34           H   tau(  34) = (   0.7221434   0.3048003   0.0739331  )
        35           N   tau(  35) = (   0.3508835   0.1935089   0.0701551  )
        36           C   tau(  36) = (   0.3380930   0.1829982   0.1812643  )
        37           C   tau(  37) = (   0.7472528   0.2338159   0.1423348  )
        38           C   tau(  38) = (   0.7527445   0.1509465   0.2196703  )
        39           Zn  tau(  39) = (   0.4699434   0.2312502   0.2255562  )
        40           O   tau(  40) = (   0.4957628   0.2452787   0.0474201  )
        41           H   tau(  41) = (   0.7252519   0.1269873   0.2557557  )
        42           C   tau(  42) = (   0.7010113   0.2783489   0.1124927  )
        43           N   tau(  43) = (   0.7152483   0.1984126   0.1900842  )
        44           H   tau(  44) = (   0.2850649   0.1891977   0.3233589  )
        45           H   tau(  45) = (   0.2619221   0.1828339   0.1154795  )
        46           H   tau(  46) = (   0.7962016   0.1689372   0.2415355  )
        47           H   tau(  47) = (   0.7881826   0.2605866   0.1598444  )
        48           H   tau(  48) = (   0.3544716   0.2410005   0.0742287  )
        49           H   tau(  49) = (   0.3320923   0.2331437   0.1898444  )
        50           Zn  tau(  50) = (   0.5563711   0.2838812   0.1151111  )
        51           O   tau(  51) = (   0.5358129   0.2994408   0.2658371  )
        52           H   tau(  52) = (   0.6962744   0.2279047   0.2224464  )
        53           H   tau(  53) = (   0.6853154   0.3124264   0.1475980  )
        54           O   tau(  54) = (   0.4104704   0.2919553   0.2708532  )
        55           H   tau(  55) = (   0.0391462   0.3165170   0.2261669  )
        56           H   tau(  56) = (  -0.0433230   0.3242992   0.2311648  )
        57           H   tau(  57) = (  -0.0080300   0.3468439   0.1230300  )
        58           O   tau(  58) = (   0.4675718   0.3048351   0.1570642  )
        59           O   tau(  59) = (   0.5950329   0.3333397   0.1866076  )
        60           C   tau(  60) = (   0.5799315   0.3323201   0.2439709  )
        61           Zn  tau(  61) = (   0.4710167   0.3347778   0.0060486  )
        62           C   tau(  62) = (   0.3636627   0.3199409   0.2418698  )
        63           H   tau(  63) = (   0.3071735   0.3143663   0.3239924  )
        64           C   tau(  64) = (   0.4185016   0.3301906   0.1356324  )
        65           C   tau(  65) = (   0.0003038   0.3508616   0.2236547  )
        66           C   tau(  66) = (   0.3077679   0.3300113   0.2754161  )
        67           O   tau(  67) = (   0.5539526   0.3549314   0.0508164  )
        68           H   tau(  68) = (  -0.1030946   0.3953834   0.0831620  )
        69           H   tau(  69) = (  -0.1180690   0.3592122   0.1573466  )
        70           C   tau(  70) = (   0.3645764   0.3394337   0.1782081  )
        71           O   tau(  71) = (   0.4122959   0.3474505   0.0793121  )
        72           C   tau(  72) = (   0.0001307   0.3814746   0.1599398  )
        73           H   tau(  73) = (   0.0331605   0.3408602   0.0181960  )
        74           C   tau(  74) = (   0.6175402   0.3715084   0.2870819  )
        75           H   tau(  75) = (   0.2144369   0.3657008   0.0674190  )
        76           H   tau(  76) = (  -0.0488947   0.3533345   0.0107431  )
        77           C   tau(  77) = (   0.2562976   0.3581455   0.2488818  )
        78           C   tau(  78) = (   0.6041151   0.3779376   0.0233877  )
        79           H   tau(  79) = (   0.0461898   0.4020291   0.1512255  )
        80           C   tau(  80) = (   0.3114619   0.3674942   0.1527048  )
        81           H   tau(  81) = (   0.2139166   0.3646538   0.2766307  )
        82           C   tau(  82) = (  -0.1069242   0.4036024   0.1335342  )
        83           H   tau(  83) = (   0.5449881   0.4513657   0.3019933  )
        84           H   tau(  84) = (   0.6773024   0.3969612   0.2119630  )
        85           C   tau(  85) = (   0.2571050   0.3779696   0.1863999  )
        86           H   tau(  86) = (   0.3148414   0.3826193   0.1040998  )
        87           C   tau(  87) = (  -0.0029427   0.3757872   0.0051396  )
        88           H   tau(  88) = (   0.5404631   0.4283977   0.1855803  )
        89           C   tau(  89) = (   0.6687906   0.4031683   0.2618610  )
        90           C   tau(  90) = (   0.1878292   0.3996007   0.0948152  )
        91           N   tau(  91) = (   0.0028475   0.3987902   0.2708626  )
        92           N   tau(  92) = (  -0.0483292   0.4303957   0.1565200  )
        93           H   tau(  93) = (  -0.1454361   0.4362781   0.1413553  )
        94           C   tau(  94) = (   0.6461990   0.4136444   0.0593290  )
        95           N   tau(  95) = (   0.4500137   0.4250976   0.2955495  )
        96           H   tau(  96) = (   0.4441716   0.4126672   0.2490735  )
        97           H   tau(  97) = (   0.1260606   0.4231235   0.0188565  )
        98           C   tau(  98) = (   0.2037613   0.4096394   0.1576172  )
        99           H   tau(  99) = (   0.6361097   0.4174046   0.1092203  )
       100           C   tau( 100) = (   0.1388266   0.4311504   0.0676117  )
       101           H   tau( 101) = (   0.0418528   0.4260713   0.2664332  )
       102           C   tau( 102) = (   0.4994911   0.4730292   0.2929472  )
       103           H   tau( 103) = (  -0.0544545   0.4433269   0.2027978  )
       104           C   tau( 104) = (   0.7088008   0.4400262   0.2971350  )
       105           H   tau( 105) = (   0.0002339   0.4152483   0.0377058  )
       106           N   tau( 106) = (   0.5020257   0.4565759   0.1817791  )
       107           C   tau( 107) = (   0.6966624   0.4437166   0.0330232  )
       108           H   tau( 108) = (   0.4992497   0.4408474   0.0863440  )
       109           H   tau( 109) = (   0.4916863   0.5075716   0.0014774  )
       110           C   tau( 110) = (   0.1678835   0.4521232   0.1909131  )
       111           H   tau( 111) = (   0.3949691   0.4600684   0.0402021  )
       112           C   tau( 112) = (   0.3916340   0.4527415   0.3181836  )
       113           C   tau( 113) = (  -0.2386464   0.4729092   0.2681051  )
       114           H   tau( 114) = (  -0.1785402   0.4681596   0.0202523  )
       115           C   tau( 115) = (   0.5008203   0.5041118   0.2294137  )
       116           H   tau( 116) = (   0.1787834   0.4622050   0.2397209  )
       117           H   tau( 117) = (   0.3526183   0.4209160   0.3093584  )
       118           H   tau( 118) = (   0.5406915   0.5372883   0.2273312  )
       119           C   tau( 119) = (   0.1023099   0.4748574   0.1008595  )
       120           H   tau( 120) = (   0.7270392   0.4721238   0.0626629  )
       121           H   tau( 121) = (   0.7152730   0.4893004   0.1797015  )
       122           C   tau( 122) = (   0.4967105   0.4801587   0.1191322  )
       123           C   tau( 123) = (  -0.1835866   0.4838251   0.3005085  )
       124           H   tau( 124) = (   0.5335779   0.5143901   0.1063596  )
       125           C   tau( 125) = (  -0.2415111   0.4948920   0.2063326  )
       126           O   tau( 126) = (   0.0551035   0.5016126   0.0714824  )
       127           O   tau( 127) = (  -0.0846150   0.5090052   0.0449292  )
       128           H   tau( 128) = (   0.3817644   0.4976587   0.2948791  )
       129           C   tau( 129) = (  -0.1318227   0.5139449   0.2744745  )
       130           C   tau( 130) = (  -0.1911603   0.5242945   0.1790332  )
       131           H   tau( 131) = (   0.4580576   0.5320766   0.2220888  )
       132           H   tau( 132) = (   0.1940588   0.5139824   0.0312997  )
       133           H   tau( 133) = (   0.4512189   0.5035273   0.1134798  )
       134           C   tau( 134) = (  -0.0780950   0.5253647   0.3168817  )
       135           H   tau( 135) = (  -0.1935957   0.5414382   0.1310228  )
       136           C   tau( 136) = (  -0.1344069   0.5343674   0.2111629  )
       137           C   tau( 137) = (   0.0827447   0.5273617   0.2071387  )
       138           O   tau( 138) = (   0.1008028   0.5303187   0.2634266  )
       139           Zn  tau( 139) = (  -0.0264173   0.5216767   0.1176134  )
       140           O   tau( 140) = (  -0.0295488   0.5517452   0.2955614  )
       141           O   tau( 141) = (  -0.0887116   0.5634756   0.1815190  )
       142           H   tau( 142) = (   0.2080236   0.5702761   0.3008295  )
       143           O   tau( 143) = (   0.0361552   0.5573057   0.1858941  )
       144           C   tau( 144) = (   0.2033524   0.5635152   0.0228174  )
       145           H   tau( 145) = (  -0.1670821   0.6190439   0.2628650  )
       146           Zn  tau( 146) = (   0.0613075   0.5757587   0.0077787  )
       147           H   tau( 147) = (  -0.1441012   0.6128420   0.0494777  )
       148           H   tau( 148) = (   0.2476572   0.5760599   0.0460286  )
       149           H   tau( 149) = (   0.1433010   0.5902163   0.0923464  )
       150           H   tau( 150) = (  -0.2385769   0.6679444   0.3368642  )
       151           N   tau( 151) = (   0.1513465   0.6015042   0.0459258  )
       152           H   tau( 152) = (  -0.2150666   0.6630713   0.1285110  )
       153           Zn  tau( 153) = (  -0.0294977   0.6244324   0.2266432  )
       154           O   tau( 154) = (  -0.0012407   0.6126543   0.0766177  )
       155           C   tau( 155) = (  -0.1627996   0.6694541   0.2707125  )
       156           N   tau( 156) = (  -0.1491182   0.6602380   0.0532441  )
       157           H   tau( 157) = (  -0.1342943   0.6551941   0.1487108  )
       158           C   tau( 158) = (  -0.1896630   0.6851225   0.3341690  )
       159           H   tau( 159) = (  -0.1891512   0.6926959   0.2333931  )
       160           C   tau( 160) = (  -0.1667678   0.6772012   0.1157452  )
       161           N   tau( 161) = (  -0.0965404   0.6879727   0.2669135  )
       162           H   tau( 162) = (  -0.0818639   0.6865271   0.3130502  )
       163           H   tau( 163) = (   0.1390241   0.6521536   0.2549732  )
       164           H   tau( 164) = (   0.2171441   0.6392543   0.2284444  )
       165           O   tau( 165) = (   0.0377979   0.6563007   0.2907908  )
       166           N   tau( 166) = (   0.1526885   0.6623897   0.1596231  )
       167           C   tau( 167) = (   0.0018904   0.6678734   0.0979683  )
       168           C   tau( 168) = (   0.1700922   0.6677997   0.0487845  )
       169           H   tau( 169) = (   0.2405718   0.6586210   0.1206819  )
       170           C   tau( 170) = (   0.1752419   0.6685247   0.2225839  )
       171           H   tau( 171) = (   0.1099630   0.6833067   0.1549473  )
       172           H   tau( 172) = (   0.2046642   0.6772834   0.0121299  )
       173           H   tau( 173) = (  -0.1916711   0.7362508   0.0124324  )
       174           O   tau( 174) = (  -0.0099683   0.6820109   0.1542850  )
       175           H   tau( 175) = (  -0.1637343   0.7282902   0.1209756  )
       176           C   tau( 176) = (   0.1960628   0.6835024   0.1126438  )
       177           H   tau( 177) = (   0.1296716   0.6977450   0.0393310  )
       178           C   tau( 178) = (  -0.0913077   0.7524648   0.2445857  )
       179           C   tau( 179) = (   0.0376700   0.7106615   0.3201062  )
       180           C   tau( 180) = (   0.0215499   0.7193317   0.0556208  )
       181           H   tau( 181) = (   0.1881386   0.7170599   0.2356790  )
       182           H   tau( 182) = (  -0.1249965   0.7834401   0.2683203  )
       183           H   tau( 183) = (   0.2068066   0.7342289   0.1149355  )
       184           H   tau( 184) = (  -0.0441451   0.7701899   0.2531874  )
       185           H   tau( 185) = (  -0.0996599   0.7535913   0.1941102  )
       186           H   tau( 186) = (   0.0691917   0.7568148   0.2374268  )
       187           C   tau( 187) = (   0.0567768   0.7640127   0.2864014  )
       188           C   tau( 188) = (   0.0259828   0.7791758   0.0816177  )
       189           H   tau( 189) = (   0.0123647   0.7838754   0.1305675  )
       190           C   tau( 190) = (   0.0601142   0.8223224   0.3133614  )
       191           C   tau( 191) = (   0.0446667   0.8313509   0.0479114  )
       192           H   tau( 192) = (   0.0755432   0.8622349   0.2854921  )

   Crystallographic axes

     site n.     atom                  positions (cryst. coord.)
         1           C   tau(   1) = (  0.3980628  0.5602030  0.5014314  )
         2           H   tau(   2) = (  0.5824781  0.9974380  0.5026396  )
         3           C   tau(   3) = (  0.5620254  0.0318571  0.2324664  )
         4           C   tau(   4) = (  0.5877036  0.0431108  0.4201483  )
         5           H   tau(   5) = (  0.5530247  0.0860264  0.9848349  )
         6           C   tau(   6) = (  0.5720515  0.0918270  0.1313476  )
         7           C   tau(   7) = (  0.6198004  0.1108364  0.5007989  )
         8           H   tau(   8) = (  0.5114518  0.1005815  0.6006556  )
         9           H   tau(   9) = (  0.6397162  0.1200028  0.6469114  )
        10           H   tau(  10) = (  0.4217166  0.0809926  0.5506255  )
        11           H   tau(  11) = (  0.7272076  0.2207965  0.0356254  )
        12           H   tau(  12) = (  0.8144439  0.2297868  0.0567255  )
        13           C   tau(  13) = (  0.4721158  0.1181524  0.6257503  )
        14           C   tau(  14) = (  0.6036204  0.1611869  0.2090462  )
        15           H   tau(  15) = (  0.8051742  0.3047255 -0.0190491  )
        16           C   tau(  16) = (  0.6271795  0.1716666  0.4021795  )
        17           C   tau(  17) = (  0.7833421  0.2578034  0.0761243  )
        18           H   tau(  18) = (  0.4618521  0.1154524  0.7790370  )
        19           H   tau(  19) = (  0.4107401  0.1448387  0.0061573  )
        20           H   tau(  20) = (  0.3777755  0.1339306  0.3365865  )
        21           O   tau(  21) = (  0.5882409  0.2021330  0.9109086  )
        22           H   tau(  22) = (  0.8332301  0.1336665  0.5624192  )
        23           H   tau(  23) = (  0.8810551  0.2312531  0.3274496  )
        24           C   tau(  24) = (  0.6098377  0.2192777  0.0804042  )
        25           H   tau(  25) = (  0.5172036  0.1958338  0.4204012  )
        26           N   tau(  26) = (  0.5013373  0.1926928  0.5610333  )
        27           O   tau(  27) = (  0.6553182  0.2337206  0.4944998  )
        28           H   tau(  28) = (  0.4042970  0.1827811  0.6649423  )
        29           H   tau(  29) = (  0.7617317  0.2376558  0.3596767  )
        30           N   tau(  30) = (  0.7869031  0.2822736  0.2718427  )
        31           C   tau(  31) = (  0.4355684  0.2036704  0.0229608  )
        32           C   tau(  32) = (  0.4078080  0.1929426  0.3584836  )
        33           H   tau(  33) = (  0.4807890  0.2302582  0.9231360  )
        34           H   tau(  34) = (  0.8981200  0.3519531  0.2250421  )
        35           N   tau(  35) = (  0.4626060  0.2234448  0.2135423  )
        36           C   tau(  36) = (  0.4437471  0.2113081  0.5517435  )
        37           C   tau(  37) = (  0.8822464  0.2699874  0.4332474  )
        38           C   tau(  38) = (  0.8398935  0.1742980  0.6686460  )
        39           Zn  tau(  39) = (  0.6034557  0.2670247  0.6865619  )
        40           O   tau(  40) = (  0.6373745  0.2832234  0.1443403  )
        41           H   tau(  41) = (  0.7985681  0.1466323  0.7784848  )
        42           C   tau(  42) = (  0.8617161  0.3214096  0.3424121  )
        43           N   tau(  43) = (  0.8298018  0.2291071  0.5785898  )
        44           H   tau(  44) = (  0.3942983  0.2184667  0.9842598  )
        45           H   tau(  45) = (  0.3674813  0.2111183  0.3515035  )
        46           H   tau(  46) = (  0.8937376  0.1950719  0.7352006  )
        47           H   tau(  47) = (  0.9386323  0.3008995  0.4865441  )
        48           H   tau(  48) = (  0.4936133  0.2782834  0.2259420  )
        49           H   tau(  49) = (  0.4666979  0.2692112  0.5778601  )
        50           Zn  tau(  50) = (  0.7202700  0.3277977  0.3503821  )
        51           O   tau(  51) = (  0.7086951  0.3457644  0.8091714  )
        52           H   tau(  52) = (  0.8278553  0.2631617  0.6770960  )
        53           H   tau(  53) = (  0.8656949  0.3607590  0.4492679  )
        54           O   tau(  54) = (  0.5790309  0.3371209  0.8244396  )
        55           H   tau(  55) = (  0.2218874  0.3654823  0.6884207  )
        56           H   tau(  56) = (  0.1439112  0.3744684  0.7036337  )
        57           H   tau(  57) = (  0.1922204  0.4005008  0.3744862  )
        58           O   tau(  58) = (  0.6435684  0.3519932  0.4780818  )
        59           O   tau(  59) = (  0.7874867  0.3849075  0.5680078  )
        60           C   tau(  60) = (  0.7717966  0.3837302  0.7426136  )
        61           Zn  tau(  61) = (  0.6643007  0.3865681  0.0184111  )
        62           C   tau(  62) = (  0.5483806  0.3694359  0.7362182  )
        63           H   tau(  63) = (  0.4886730  0.3629990  0.9861879  )
        64           C   tau(  64) = (  0.6091373  0.3812713  0.4128461  )
        65           C   tau(  65) = (  0.2028738  0.4051401  0.6807738  )
        66           C   tau(  66) = (  0.4983000  0.3810642  0.8383285  )
        67           O   tau(  67) = (  0.7588724  0.4098395  0.1546782  )
        68           H   tau(  68) = (  0.1251801  0.4565494  0.2531335  )
        69           H   tau(  69) = (  0.0893222  0.4147825  0.4789413  )
        70           C   tau(  70) = (  0.5605486  0.3919443  0.5424408  )
        71           O   tau(  71) = (  0.6128965  0.4012013  0.2414149  )
        72           C   tau(  72) = (  0.2203752  0.4404889  0.4868347  )
        73           H   tau(  73) = (  0.2299562  0.3935914  0.0553862  )
        74           C   tau(  74) = (  0.8320307  0.4289809  0.8738375  )
        75           H   tau(  75) = (  0.4255744  0.4222749  0.2052141  )
        76           H   tau(  76) = (  0.1551031  0.4079955  0.0327006  )
        77           C   tau(  77) = (  0.4630730  0.4135508  0.7575616  )
        78           C   tau(  78) = (  0.8223175  0.4364048  0.0711889  )
        79           H   tau(  79) = (  0.2783014  0.4642232  0.4603096  )
        80           C   tau(  80) = (  0.5236348  0.4243457  0.4648122  )
        81           H   tau(  81) = (  0.4244496  0.4210659  0.8420256  )
        82           C   tau(  82) = (  0.1260957  0.4660399  0.4064595  )
        83           H   tau(  83) = (  0.8055842  0.5211922  0.9192258  )
        84           H   tau(  84) = (  0.9064880  0.4583713  0.6451859  )
        85           C   tau(  85) = (  0.4753258  0.4364417  0.5673753  )
        86           H   tau(  86) = (  0.5357467  0.4418107  0.3168654  )
        87           C   tau(  87) = (  0.2140181  0.4339217  0.0156441  )
        88           H   tau(  88) = (  0.7877986  0.4946710  0.5648806  )
        89           C   tau(  89) = (  0.9015600  0.4655386  0.7970686  )
        90           C   tau(  90) = (  0.4185388  0.4614192  0.2886042  )
        91           N   tau(  91) = (  0.2330891  0.4604833  0.8244681  )
        92           N   tau(  92) = (  0.2001599  0.4969782  0.4764250  )
        93           H   tau(  93) = (  0.1064492  0.5037706  0.4302658  )
        94           C   tau(  94) = (  0.8850167  0.4776355  0.1805892  )
        95           N   tau(  95) = (  0.6954439  0.4908604  0.8996118  )
        96           H   tau(  96) = (  0.6824251  0.4765070  0.7581452  )
        97           H   tau(  97) = (  0.3703511  0.4885810  0.0573965  )
        98           C   tau(  98) = (  0.4402667  0.4730108  0.4797648  )
        99           H   tau(  99) = (  0.8770984  0.4819774  0.3324515  )
       100           C   tau( 100) = (  0.3877514  0.4978496  0.2058008  )
       101           H   tau( 101) = (  0.2878452  0.4919848  0.8109858  )
       102           C   tau( 102) = (  0.7725947  0.5462071  0.8916906  )
       103           H   tau( 103) = (  0.2015004  0.5119098  0.6172885  )
       104           C   tau( 104) = (  0.9628500  0.5080985  0.9044377  )
       105           H   tau( 105) = (  0.2399776  0.4794874  0.1147713  )
       106           N   tau( 106) = (  0.7656299  0.5272084  0.5533103  )
       107           C   tau( 107) = (  0.9528423  0.5123598  0.1005179  )
       108           H   tau( 108) = (  0.7537731  0.5090467  0.2628192  )
       109           H   tau( 109) = (  0.7847329  0.5860932  0.0044971  )
       110           C   tau( 110) = (  0.4289169  0.5220669  0.5811129  )
       111           H   tau( 111) = (  0.6605897  0.5312413  0.1223696  )
       112           C   tau( 112) = (  0.6530244  0.5227808  0.9685066  )
       113           C   tau( 113) = (  0.0343878  0.5460685  0.8160749  )
       114           H   tau( 114) = (  0.0917518  0.5405841  0.0616452  )
       115           C   tau( 115) = (  0.7918693  0.5820982  0.6983036  )
       116           H   tau( 116) = (  0.4456376  0.5337084  0.7296773  )
       117           H   tau( 117) = (  0.5956343  0.4860319  0.9416441  )
       118           H   tau( 118) = (  0.8508951  0.6204071  0.6919646  )
       119           C   tau( 119) = (  0.3764690  0.5483181  0.3070024  )
       120           H   tau( 120) = (  0.9996200  0.5451616  0.1907372  )
       121           H   tau( 121) = (  0.9977707  0.5649954  0.5469865  )
       122           C   tau( 122) = (  0.7739302  0.5544395  0.3626218  )
       123           C   tau( 123) = (  0.0957500  0.5586731  0.9147064  )
       124           H   tau( 124) = (  0.8305612  0.5939665  0.3237440  )
       125           C   tau( 125) = (  0.0442150  0.5714520  0.6280479  )
       126           O   tau( 126) = (  0.3447097  0.5792124  0.2175825  )
       127           O   tau( 127) = (  0.2092593  0.5877486  0.1367583  )
       128           H   tau( 128) = (  0.6690878  0.5746468  0.8975710  )
       129           C   tau( 129) = (  0.1649035  0.5934524  0.8354623  )
       130           C   tau( 130) = (  0.1115413  0.6054031  0.5449523  )
       131           H   tau( 131) = (  0.7652521  0.6143892  0.6760075  )
       132           H   tau( 132) = (  0.4908067  0.5934957  0.0952721  )
       133           H   tau( 133) = (  0.7419305  0.5814232  0.3454169  )
       134           C   tau( 134) = (  0.2252245  0.6066389  0.9645438  )
       135           H   tau( 135) = (  0.1190037  0.6251989  0.3988153  )
       136           C   tau( 136) = (  0.1741103  0.6170343  0.6427507  )
       137           C   tau( 137) = (  0.3872171  0.6089448  0.6305016  )
       138           O   tau( 138) = (  0.4069825  0.6123593  0.8018339  )
       139           Zn  tau( 139) = (  0.2747729  0.6023804  0.3579988  )
       140           O   tau( 140) = (  0.2890014  0.6371004  0.8996480  )
       141           O   tau( 141) = (  0.2366112  0.6506456  0.5525186  )
       142           H   tau( 142) = (  0.5372727  0.6584981  0.9156834  )
       143           O   tau( 143) = (  0.3579158  0.6435212  0.5658360  )
       144           C   tau( 144) = (  0.5286980  0.6506913  0.0694529  )
       145           H   tau( 145) = (  0.1903231  0.7148104  0.8001246  )
       146           Zn  tau( 146) = (  0.3937220  0.6648289  0.0236773  )
       147           H   tau( 147) = (  0.2097233  0.7076490  0.1506033  )
       148           H   tau( 148) = (  0.5802455  0.6651767  0.1401048  )
       149           H   tau( 149) = (  0.4840625  0.6815230  0.2810897  )
       150           H   tau( 150) = (  0.1470609  0.7712758  1.0253678  )
       151           N   tau( 151) = (  0.4986251  0.6945572  0.1397917  )
       152           H   tau( 152) = (  0.1677579  0.7656488  0.3911697  )
       153           Zn  tau( 153) = (  0.3310185  0.7210324  0.6898704  )
       154           O   tau( 154) = (  0.3524755  0.7074323  0.2332137  )
       155           C   tau( 155) = (  0.2237099  0.7730190  0.8240112  )
       156           N   tau( 156) = (  0.2320705  0.7623772  0.1620675  )
       157           H   tau( 157) = (  0.2439821  0.7565529  0.4526550  )
       158           C   tau( 158) = (  0.2058927  0.7911113  1.0171640  )
       159           H   tau( 159) = (  0.2107770  0.7998563  0.7104161  )
       160           C   tau( 160) = (  0.2242145  0.7819646  0.3523123  )
       161           N   tau( 161) = (  0.3006608  0.7944025  0.8124478  )
       162           H   tau( 162) = (  0.3145027  0.7927332  0.9528813  )
       163           H   tau( 163) = (  0.5155452  0.7530421  0.7761032  )
       164           H   tau( 164) = (  0.5862178  0.7381473  0.6953530  )
       165           O   tau( 165) = (  0.4167132  0.7578307  0.8851269  )
       166           N   tau( 166) = (  0.5351194  0.7648617  0.4858704  )
       167           C   tau( 167) = (  0.3874873  0.7711938  0.2982020  )
       168           C   tau( 168) = (  0.5556466  0.7711086  0.1484933  )
       169           H   tau( 169) = (  0.6208268  0.7605100  0.3673389  )
       170           C   tau( 170) = (  0.5612148  0.7719458  0.6775144  )
       171           H   tau( 171) = (  0.5044703  0.7890146  0.4716381  )
       172           H   tau( 172) = (  0.5956940  0.7820595  0.0369218  )
       173           H   tau( 173) = (  0.2334035  0.8501492  0.0378425  )
       174           O   tau( 174) = (  0.3837909  0.7875184  0.4696223  )
       175           H   tau( 175) = (  0.2567443  0.8409571  0.3682329  )
       176           C   tau( 176) = (  0.5906831  0.7892406  0.3428721  )
       177           H   tau( 177) = (  0.5325149  0.8056865  0.1197180  )
       178           C   tau( 178) = (  0.3431281  0.8688715  0.7444849  )
       179           C   tau( 179) = (  0.4479706  0.8206012  0.9743589  )
       180           C   tau( 180) = (  0.4368562  0.8306127  0.1693021  )
       181           H   tau( 181) = (  0.6021334  0.8279894  0.7173741  )
       182           H   tau( 182) = (  0.3273229  0.9046387  0.8167297  )
       183           H   tau( 183) = (  0.6307138  0.8478145  0.3498477  )
       184           H   tau( 184) = (  0.4005242  0.8893387  0.7706674  )
       185           H   tau( 185) = (  0.3354263  0.8701723  0.5908446  )
       186           H   tau( 186) = (  0.5061389  0.8738944  0.7226944  )
       187           C   tau( 187) = (  0.4978797  0.8822058  0.8717661  )
       188           C   tau( 188) = (  0.4758401  0.8997147  0.2484331  )
       189           H   tau( 189) = (  0.4649353  0.9051414  0.3974295  )
       190           C   tau( 190) = (  0.5348823  0.9495362  0.9538287  )
       191           C   tau( 191) = (  0.5246474  0.9599614  0.1458358  )
       192           H   tau( 192) = (  0.5733547  0.9956232  0.8689985  )

     number of k points=     2  Marzari-Vanderbilt smearing, width (Ry)=  0.0220
                       cart. coord. in units 2pi/alat
        k(    1) = (   0.0000000   0.0000000   0.0000000), wk =   1.0000000
        k(    2) = (   0.0000000   0.0000000  -1.5219307), wk =   1.0000000

                       cryst. coord.
        k(    1) = (   0.0000000   0.0000000   0.0000000), wk =   1.0000000
        k(    2) = (   0.0000000   0.0000000  -0.5000000), wk =   1.0000000

     Dense  grid:  3373269 G-vectors     FFT dimensions: ( 288, 288,  96)

     Smooth grid:  2010451 G-vectors     FFT dimensions: ( 240, 240,  80)

     Dynamical RAM for                 wfc:      92.28 MB

     Dynamical RAM for     wfc (w. buffer):      92.28 MB

     Dynamical RAM for           str. fact:      16.09 MB

     Dynamical RAM for           local pot:       0.00 MB

     Dynamical RAM for          nlocal pot:     253.12 MB

     Dynamical RAM for                qrad:       8.79 MB

     Dynamical RAM for          rho,v,vnew:      21.04 MB

     Dynamical RAM for               rhoin:       7.01 MB

     Dynamical RAM for            rho*nmix:      51.47 MB

     Dynamical RAM for           G-vectors:      13.02 MB

     Dynamical RAM for          h,s,v(r/c):      27.14 MB

     Dynamical RAM for          <psi|beta>:       6.20 MB

     Dynamical RAM for                 psi:     184.57 MB

     Dynamical RAM for                hpsi:     184.57 MB

     Dynamical RAM for                spsi:     184.57 MB

     Dynamical RAM for      wfcinit/wfcrot:     187.96 MB

     Dynamical RAM for           addusdens:     224.38 MB

     Dynamical RAM for          addusforce:     367.09 MB

     Dynamical RAM for         addusstress:     162.86 MB

     Estimated static dynamical RAM per process >     449.65 MB

     Estimated max dynamical RAM per process >       1.06 GB

     Estimated total dynamical RAM >      65.60 GB

     Check: negative core charge=   -0.000001
     Cannot read rho : file not found

     Initial potential from superposition of free atoms

     starting charge     641.9954, renormalised to     642.0000

     negative rho (up, down):  3.150E-04 0.000E+00
     Message from routine qexsd_readschema :
     xml data file ./out/m2m.save/data-file-schema.xml not found
     Cannot read wfcs: file not found
     Starting wfcs are  552 randomized atomic wfcs
     Checking if some PAW data can be deallocated... 
       PAW data deallocated on   19 nodes for type:  1
       PAW data deallocated on   48 nodes for type:  5

     total cpu time spent up to now is       13.8 secs

     Self-consistent Calculation
[tb_dev] Currently allocated     7.44E+01 Mbytes, locked:    0 /   9
[tb_pin] Currently allocated     9.34E+00 Mbytes, locked:    0 /   5

     iteration #  1     ecut=    85.00 Ry     beta= 0.40
     Davidson diagonalization with overlap

---- Real-time Memory Report at c_bands before calling an iterative solver
          2328 MiB given to the printing process from OS
             0 MiB allocation reported by mallinfo(arena+hblkhd)
        232672 MiB available memory on the node where the printing process lives
     GPU memory used/free/total (MiB): 1761 / 38576 / 40338
------------------
     c_bands:  2 eigenvalues not converged
     ethr =  1.00E-05,  avg # of iterations = 40.0

     negative rho (up, down):  4.834E-04 0.000E+00

     total cpu time spent up to now is       20.3 secs

     total energy              =   -5049.52481584 Ry
     estimated scf accuracy    <      21.21278349 Ry
[tb_dev] Currently allocated     1.46E-03 Mbytes, locked:    0 /   2
[tb_pin] Currently allocated     3.65E+01 Mbytes, locked:    0 /   8

     iteration #  2     ecut=    85.00 Ry     beta= 0.40
     Davidson diagonalization with overlap

---- Real-time Memory Report at c_bands before calling an iterative solver
          2422 MiB given to the printing process from OS
             0 MiB allocation reported by mallinfo(arena+hblkhd)
        232419 MiB available memory on the node where the printing process lives
     GPU memory used/free/total (MiB): 1699 / 38638 / 40338
------------------
     ethr =  3.30E-03,  avg # of iterations =  2.0

     negative rho (up, down):  6.273E-04 0.000E+00

     total cpu time spent up to now is       21.8 secs

     total energy              =   -5051.37331440 Ry
     estimated scf accuracy    <       2.25766659 Ry
[tb_dev] Currently allocated     1.46E-03 Mbytes, locked:    0 /   2
[tb_pin] Currently allocated     3.65E+01 Mbytes, locked:    0 /   8

     iteration #  3     ecut=    85.00 Ry     beta= 0.40
     Davidson diagonalization with overlap

---- Real-time Memory Report at c_bands before calling an iterative solver
          2437 MiB given to the printing process from OS
             0 MiB allocation reported by mallinfo(arena+hblkhd)
        232363 MiB available memory on the node where the printing process lives
     GPU memory used/free/total (MiB): 1699 / 38638 / 40338
------------------
     ethr =  3.52E-04,  avg # of iterations = 11.5

     negative rho (up, down):  6.932E-04 0.000E+00

     total cpu time spent up to now is       24.1 secs

     total energy              =   -5051.64639488 Ry
     estimated scf accuracy    <       0.50223229 Ry
[tb_dev] Currently allocated     1.46E-03 Mbytes, locked:    0 /   2
[tb_pin] Currently allocated     3.65E+01 Mbytes, locked:    0 /   8

     iteration #  4     ecut=    85.00 Ry     beta= 0.40
     Davidson diagonalization with overlap

---- Real-time Memory Report at c_bands before calling an iterative solver
          2444 MiB given to the printing process from OS
             0 MiB allocation reported by mallinfo(arena+hblkhd)
        232332 MiB available memory on the node where the printing process lives
     GPU memory used/free/total (MiB): 1699 / 38638 / 40338
------------------
     ethr =  7.82E-05,  avg # of iterations =  9.0

     negative rho (up, down):  8.182E-04 0.000E+00

     total cpu time spent up to now is       25.9 secs

     total energy              =   -5051.65853268 Ry
     estimated scf accuracy    <       0.11141935 Ry
[tb_dev] Currently allocated     1.46E-03 Mbytes, locked:    0 /   2
[tb_pin] Currently allocated     3.65E+01 Mbytes, locked:    0 /   8

     iteration #  5     ecut=    85.00 Ry     beta= 0.40
     Davidson diagonalization with overlap

---- Real-time Memory Report at c_bands before calling an iterative solver
          2456 MiB given to the printing process from OS
             0 MiB allocation reported by mallinfo(arena+hblkhd)
        232300 MiB available memory on the node where the printing process lives
     GPU memory used/free/total (MiB): 1699 / 38638 / 40338
------------------
     ethr =  1.74E-05,  avg # of iterations = 20.0

     negative rho (up, down):  8.674E-04 0.000E+00

     total cpu time spent up to now is       28.4 secs

     total energy              =   -5051.67177036 Ry
     estimated scf accuracy    <       0.02261414 Ry
[tb_dev] Currently allocated     1.46E-03 Mbytes, locked:    0 /   2
[tb_pin] Currently allocated     3.65E+01 Mbytes, locked:    0 /   8

     iteration #  6     ecut=    85.00 Ry     beta= 0.40
     Davidson diagonalization with overlap

---- Real-time Memory Report at c_bands before calling an iterative solver
          2463 MiB given to the printing process from OS
             0 MiB allocation reported by mallinfo(arena+hblkhd)
        232273 MiB available memory on the node where the printing process lives
     GPU memory used/free/total (MiB): 1699 / 38638 / 40338
------------------
     c_bands:  1 eigenvalues not converged
     ethr =  3.52E-06,  avg # of iterations = 15.5

     negative rho (up, down):  9.025E-04 0.000E+00

     total cpu time spent up to now is       30.7 secs

     total energy              =   -5051.67349037 Ry
     estimated scf accuracy    <       0.00382372 Ry
[tb_dev] Currently allocated     1.46E-03 Mbytes, locked:    0 /   2
[tb_pin] Currently allocated     3.65E+01 Mbytes, locked:    0 /   8

     iteration #  7     ecut=    85.00 Ry     beta= 0.40
     Davidson diagonalization with overlap

---- Real-time Memory Report at c_bands before calling an iterative solver
          2466 MiB given to the printing process from OS
             0 MiB allocation reported by mallinfo(arena+hblkhd)
        232262 MiB available memory on the node where the printing process lives
     GPU memory used/free/total (MiB): 1699 / 38638 / 40338
------------------
     ethr =  5.96E-07,  avg # of iterations = 10.0

     negative rho (up, down):  9.181E-04 0.000E+00

     total cpu time spent up to now is       33.0 secs

     total energy              =   -5051.67435992 Ry
     estimated scf accuracy    <       0.00219782 Ry
[tb_dev] Currently allocated     1.46E-03 Mbytes, locked:    0 /   2
[tb_pin] Currently allocated     3.65E+01 Mbytes, locked:    0 /   8

     iteration #  8     ecut=    85.00 Ry     beta= 0.40
     Davidson diagonalization with overlap

---- Real-time Memory Report at c_bands before calling an iterative solver
          2472 MiB given to the printing process from OS
             0 MiB allocation reported by mallinfo(arena+hblkhd)
        232245 MiB available memory on the node where the printing process lives
     GPU memory used/free/total (MiB): 1699 / 38638 / 40338
------------------
     ethr =  3.42E-07,  avg # of iterations =  4.0

     negative rho (up, down):  9.312E-04 0.000E+00

     total cpu time spent up to now is       34.7 secs

     total energy              =   -5051.67484163 Ry
     estimated scf accuracy    <       0.00007505 Ry
[tb_dev] Currently allocated     1.46E-03 Mbytes, locked:    0 /   2
[tb_pin] Currently allocated     3.65E+01 Mbytes, locked:    0 /   8

     iteration #  9     ecut=    85.00 Ry     beta= 0.40
     Davidson diagonalization with overlap

---- Real-time Memory Report at c_bands before calling an iterative solver
          2476 MiB given to the printing process from OS
             0 MiB allocation reported by mallinfo(arena+hblkhd)
        232236 MiB available memory on the node where the printing process lives
     GPU memory used/free/total (MiB): 1699 / 38638 / 40338
------------------
     ethr =  1.17E-08,  avg # of iterations =  5.0

     negative rho (up, down):  9.358E-04 0.000E+00

     total cpu time spent up to now is       37.0 secs

     total energy              =   -5051.67483401 Ry
     estimated scf accuracy    <       0.00020567 Ry
[tb_dev] Currently allocated     1.46E-03 Mbytes, locked:    0 /   2
[tb_pin] Currently allocated     3.65E+01 Mbytes, locked:    0 /   8

     iteration # 10     ecut=    85.00 Ry     beta= 0.40
     Davidson diagonalization with overlap

---- Real-time Memory Report at c_bands before calling an iterative solver
          2482 MiB given to the printing process from OS
             0 MiB allocation reported by mallinfo(arena+hblkhd)
        232221 MiB available memory on the node where the printing process lives
     GPU memory used/free/total (MiB): 1699 / 38638 / 40338
------------------
     ethr =  1.17E-08,  avg # of iterations =  4.0

     negative rho (up, down):  9.394E-04 0.000E+00

     total cpu time spent up to now is       38.9 secs

     total energy              =   -5051.67485435 Ry
     estimated scf accuracy    <       0.00001262 Ry
[tb_dev] Currently allocated     1.46E-03 Mbytes, locked:    0 /   2
[tb_pin] Currently allocated     3.65E+01 Mbytes, locked:    0 /   8

     iteration # 11     ecut=    85.00 Ry     beta= 0.40
     Davidson diagonalization with overlap

---- Real-time Memory Report at c_bands before calling an iterative solver
          2482 MiB given to the printing process from OS
             0 MiB allocation reported by mallinfo(arena+hblkhd)
        232223 MiB available memory on the node where the printing process lives
     GPU memory used/free/total (MiB): 1699 / 38638 / 40338
------------------
     ethr =  1.97E-09,  avg # of iterations =  5.0

     negative rho (up, down):  9.413E-04 0.000E+00

     total cpu time spent up to now is       40.9 secs

     total energy              =   -5051.67485969 Ry
     estimated scf accuracy    <       0.00000346 Ry
[tb_dev] Currently allocated     1.46E-03 Mbytes, locked:    0 /   2
[tb_pin] Currently allocated     3.65E+01 Mbytes, locked:    0 /   8

     iteration # 12     ecut=    85.00 Ry     beta= 0.40
     Davidson diagonalization with overlap

---- Real-time Memory Report at c_bands before calling an iterative solver
          2482 MiB given to the printing process from OS
             0 MiB allocation reported by mallinfo(arena+hblkhd)
        232207 MiB available memory on the node where the printing process lives
     GPU memory used/free/total (MiB): 1699 / 38638 / 40338
------------------
     ethr =  5.38E-10,  avg # of iterations =  3.5

     negative rho (up, down):  9.425E-04 0.000E+00

     total cpu time spent up to now is       42.5 secs

     total energy              =   -5051.67485977 Ry
     estimated scf accuracy    <       0.00000077 Ry
[tb_dev] Currently allocated     1.46E-03 Mbytes, locked:    0 /   2
[tb_pin] Currently allocated     3.65E+01 Mbytes, locked:    0 /   8

     iteration # 13     ecut=    85.00 Ry     beta= 0.40
     Davidson diagonalization with overlap

---- Real-time Memory Report at c_bands before calling an iterative solver
          2482 MiB given to the printing process from OS
             0 MiB allocation reported by mallinfo(arena+hblkhd)
        232211 MiB available memory on the node where the printing process lives
     GPU memory used/free/total (MiB): 1699 / 38638 / 40338
------------------
     ethr =  1.20E-10,  avg # of iterations =  4.0

     negative rho (up, down):  9.430E-04 0.000E+00

     total cpu time spent up to now is       44.4 secs

     total energy              =   -5051.67486000 Ry
     estimated scf accuracy    <       0.00000003 Ry
[tb_dev] Currently allocated     1.46E-03 Mbytes, locked:    0 /   2
[tb_pin] Currently allocated     3.65E+01 Mbytes, locked:    0 /   8

     iteration # 14     ecut=    85.00 Ry     beta= 0.40
     Davidson diagonalization with overlap

---- Real-time Memory Report at c_bands before calling an iterative solver
          2483 MiB given to the printing process from OS
             0 MiB allocation reported by mallinfo(arena+hblkhd)
        232232 MiB available memory on the node where the printing process lives
     GPU memory used/free/total (MiB): 1699 / 38638 / 40338
------------------
     ethr =  5.24E-12,  avg # of iterations =  4.0

     negative rho (up, down):  9.439E-04 0.000E+00

     total cpu time spent up to now is       46.1 secs

     End of self-consistent calculation

          k = 0.0000 0.0000 0.0000 (251583 PWs)   bands (ev):

  -123.8332-123.7999-123.7959-123.7721-123.7679-123.6964 -78.2057 -78.2046
   -78.1807 -78.1779 -78.1725 -78.1657 -78.1647 -78.1507 -78.1464 -78.1424
   -78.1397 -78.1388 -78.1322 -78.1150 -78.1137 -78.0715 -78.0685 -78.0432
   -22.3953 -22.3491 -22.2346 -22.1898 -22.1580 -22.1542 -20.8127 -20.7415
   -20.7139 -20.7127 -20.6949 -20.5938 -19.9995 -19.9175 -19.9163 -19.9140
   -19.8626 -19.8487 -19.0968 -19.0125 -19.0085 -18.9964 -18.9884 -18.9827
   -18.2319 -18.0551 -18.0327 -18.0313 -18.0285 -18.0187 -17.1885 -17.1710
   -17.0761 -16.5188 -16.4928 -16.3973 -14.6746 -14.6129 -14.5239 -14.4574
   -14.4305 -14.3420 -14.2724 -14.2212 -14.2104 -14.1318 -14.0889 -14.0762
   -14.0662 -14.0579 -14.0387 -12.9910 -12.9115 -12.8261 -12.4525 -12.2666
   -12.2612 -12.2439 -12.2378 -12.2320 -11.8646 -11.8430 -11.8340 -11.8302
   -11.8209 -11.8075 -11.5592 -11.5073 -11.4174 -11.1250 -11.1035 -11.0237
   -10.7272 -10.6790 -10.5584 -10.4875 -10.4540 -10.4316 -10.4173 -10.4056
   -10.3785 -10.2783 -10.2573 -10.1620  -9.7984  -9.4808  -9.4545  -9.4264
    -8.8413  -8.8124  -8.5937  -8.5698  -8.5105  -8.4182  -8.3611  -8.3211
    -8.2810  -8.2340  -8.1399  -8.1038  -8.0740  -8.0249  -7.9873  -7.9777
    -7.8215  -7.8050  -7.7895  -7.7603  -7.7463  -7.7004  -7.6976  -7.6921
    -7.6625  -7.6393  -7.6166  -7.5465  -7.4942  -7.4541  -7.4156  -7.3547
    -7.3355  -7.3098  -7.2988  -7.1285  -7.1088  -7.0673  -7.0471  -7.0296
    -7.0032  -6.9622  -6.9226  -6.8884  -6.8643  -6.8128  -6.7935  -6.7824
    -6.7371  -6.7133  -6.7081  -6.6924  -6.6529  -6.6187  -6.5931  -6.5434
    -6.5337  -6.4449  -6.4293  -6.3410  -6.2367  -6.2149  -6.1817  -6.1696
    -6.1357  -6.1313  -6.1039  -6.0789  -6.0513  -6.0499  -6.0230  -6.0019
    -5.9820  -5.9732  -5.9496  -5.8513  -5.8235  -5.8040  -5.7776  -5.7501
    -5.7273  -5.7090  -5.6907  -5.5673  -5.5434  -5.4998  -5.4218  -5.4035
    -5.3997  -5.3820  -5.3677  -5.3569  -5.3545  -5.3398  -5.3115  -5.2912
    -5.2526  -5.2165  -5.1744  -5.1717  -5.1669  -5.1635  -5.1571  -5.1451
    -5.1280  -5.1201  -5.1016  -5.0907  -5.0829  -5.0779  -5.0395  -5.0300
    -5.0055  -4.9613  -4.9225  -4.9058  -4.8768  -4.8356  -4.8022  -4.7738
    -4.7445  -4.7389  -4.7151  -4.7019  -4.6908  -4.6740  -4.6567  -4.6406
    -4.6082  -4.5686  -4.5488  -4.5225  -4.5142  -4.4869  -4.4753  -4.3796
    -4.3507  -4.3396  -4.3251  -4.2946  -4.2734  -4.2538  -4.2104  -4.1686
    -4.1240  -4.1074  -4.1043  -4.0665  -3.9824  -3.9603  -3.9067  -3.9021
    -3.8891  -3.8772  -3.8514  -3.8075  -3.7596  -3.7508  -3.6233  -3.6072
    -3.4839  -3.2703  -3.1328  -3.0714  -3.0368  -2.8762  -2.8578  -2.7759
    -2.7287  -2.6719  -2.6393  -2.5937  -2.5419  -2.3436  -2.3196  -2.2986
    -2.2830  -2.1591  -2.1326  -2.1156  -2.0691  -2.0656  -2.0552  -2.0194
    -1.9466  -1.8288  -1.8135  -1.7581  -1.7418  -1.7297  -1.6861  -1.3718
    -1.3381  -1.2853  -1.2203  -1.1936  -1.1664  -1.1506  -1.1334  -0.9864
    -0.9558  -0.9217  -0.9047  -0.8981  -0.8882  -0.8747  -0.4861  -0.3700
    -0.3250   2.1520   2.2405   2.2544   2.3007   2.3150   2.3768   2.7254
     2.7929   2.8958   3.1408   3.3512   3.4177   3.5209   3.5542   3.5770
     3.6608   3.7039   3.9440   3.9565   4.1907   4.3057   4.3333   4.3759
     4.3955   4.4485   4.5197   4.5486   4.5560   4.6535   4.7473   4.7993
     4.8892   4.8919   4.9478   5.0583   5.1089   5.1399   5.1745   5.2382
     5.2598   5.3405   5.4032   5.4427   5.4752   5.4994   5.5506   5.5578
     5.6086   5.6112   5.6313   5.6493   5.6723   5.7205   5.7459   5.8389
     5.8889   5.9151   5.9323   5.9692   6.0079   6.0388   6.1074   6.1430
     6.2040

     occupation numbers 
     1.0000   1.0000   1.0000   1.0000   1.0000   1.0000   1.0000   1.0000
     1.0000   1.0000   1.0000   1.0000   1.0000   1.0000   1.0000   1.0000
     1.0000   1.0000   1.0000   1.0000   1.0000   1.0000   1.0000   1.0000
     1.0000   1.0000   1.0000   1.0000   1.0000   1.0000   1.0000   1.0000
     1.0000   1.0000   1.0000   1.0000   1.0000   1.0000   1.0000   1.0000
     1.0000   1.0000   1.0000   1.0000   1.0000   1.0000   1.0000   1.0000
     1.0000   1.0000   1.0000   1.0000   1.0000   1.0000   1.0000   1.0000
     1.0000   1.0000   1.0000   1.0000   1.0000   1.0000   1.0000   1.0000
     1.0000   1.0000   1.0000   1.0000   1.0000   1.0000   1.0000   1.0000
     1.0000   1.0000   1.0000   1.0000   1.0000   1.0000   1.0000   1.0000
     1.0000   1.0000   1.0000   1.0000   1.0000   1.0000   1.0000   1.0000
     1.0000   1.0000   1.0000   1.0000   1.0000   1.0000   1.0000   1.0000
     1.0000   1.0000   1.0000   1.0000   1.0000   1.0000   1.0000   1.0000
     1.0000   1.0000   1.0000   1.0000   1.0000   1.0000   1.0000   1.0000
     1.0000   1.0000   1.0000   1.0000   1.0000   1.0000   1.0000   1.0000
     1.0000   1.0000   1.0000   1.0000   1.0000   1.0000   1.0000   1.0000
     1.0000   1.0000   1.0000   1.0000   1.0000   1.0000   1.0000   1.0000
     1.0000   1.0000   1.0000   1.0000   1.0000   1.0000   1.0000   1.0000
     1.0000   1.0000   1.0000   1.0000   1.0000   1.0000   1.0000   1.0000
     1.0000   1.0000   1.0000   1.0000   1.0000   1.0000   1.0000   1.0000
     1.0000   1.0000   1.0000   1.0000   1.0000   1.0000   1.0000   1.0000
     1.0000   1.0000   1.0000   1.0000   1.0000   1.0000   1.0000   1.0000
     1.0000   1.0000   1.0000   1.0000   1.0000   1.0000   1.0000   1.0000
     1.0000   1.0000   1.0000   1.0000   1.0000   1.0000   1.0000   1.0000
     1.0000   1.0000   1.0000   1.0000   1.0000   1.0000   1.0000   1.0000
     1.0000   1.0000   1.0000   1.0000   1.0000   1.0000   1.0000   1.0000
     1.0000   1.0000   1.0000   1.0000   1.0000   1.0000   1.0000   1.0000
     1.0000   1.0000   1.0000   1.0000   1.0000   1.0000   1.0000   1.0000
     1.0000   1.0000   1.0000   1.0000   1.0000   1.0000   1.0000   1.0000
     1.0000   1.0000   1.0000   1.0000   1.0000   1.0000   1.0000   1.0000
     1.0000   1.0000   1.0000   1.0000   1.0000   1.0000   1.0000   1.0000
     1.0000   1.0000   1.0000   1.0000   1.0000   1.0000   1.0000   1.0000
     1.0000   1.0000   1.0000   1.0000   1.0000   1.0000   1.0000   1.0000
     1.0000   1.0000   1.0000   1.0000   1.0000   1.0000   1.0000   1.0000
     1.0000   1.0000   1.0000   1.0000   1.0000   1.0000   1.0000   1.0000
     1.0000   1.0000   1.0000   1.0000   1.0000   1.0000   1.0000   1.0000
     1.0000   1.0000   1.0000   1.0000   1.0000   1.0000   1.0000   1.0000
     1.0000   1.0000   1.0000   1.0000   1.0000   1.0000   1.0000   1.0000
     1.0000   1.0000   1.0000   1.0000   1.0000   1.0000   1.0000   1.0000
     1.0000   1.0000   1.0000   1.0000   1.0000   1.0000   1.0000   1.0000
     1.0000   0.0000   0.0000   0.0000   0.0000   0.0000   0.0000   0.0000
     0.0000   0.0000   0.0000   0.0000   0.0000   0.0000   0.0000   0.0000
     0.0000   0.0000   0.0000   0.0000   0.0000   0.0000   0.0000   0.0000
     0.0000   0.0000   0.0000   0.0000   0.0000   0.0000   0.0000   0.0000
     0.0000   0.0000   0.0000   0.0000   0.0000   0.0000   0.0000   0.0000
     0.0000   0.0000   0.0000   0.0000   0.0000   0.0000   0.0000   0.0000
     0.0000   0.0000   0.0000   0.0000   0.0000   0.0000   0.0000   0.0000
     0.0000   0.0000   0.0000   0.0000   0.0000   0.0000   0.0000   0.0000
     0.0000

          k = 0.0000 0.0000-1.5219 (251236 PWs)   bands (ev):

  -123.8332-123.7999-123.7959-123.7721-123.7679-123.6964 -78.2057 -78.2046
   -78.1807 -78.1779 -78.1725 -78.1657 -78.1647 -78.1507 -78.1464 -78.1424
   -78.1397 -78.1388 -78.1322 -78.1150 -78.1137 -78.0715 -78.0685 -78.0432
   -22.3531 -22.2877 -22.2722 -22.2593 -22.1476 -22.1389 -20.8399 -20.7704
   -20.7421 -20.7329 -20.6904 -20.6049 -19.9829 -19.9126 -19.9032 -19.8955
   -19.8439 -19.8334 -19.0875 -18.9938 -18.9909 -18.9770 -18.9722 -18.9654
   -18.2477 -18.0866 -18.0646 -18.0611 -18.0578 -18.0481 -17.1767 -17.1613
   -17.0666 -16.5144 -16.4950 -16.3977 -14.6429 -14.6136 -14.5233 -14.4822
   -14.4578 -14.3657 -14.2490 -14.2134 -14.1982 -14.1379 -14.1291 -14.1146
   -14.1067 -14.1041 -14.0619 -12.9726 -12.9294 -12.8377 -12.5099 -12.2789
   -12.2648 -12.2541 -12.2414 -12.2300 -11.8408 -11.5816 -11.5384 -11.5026
   -11.4841 -11.4830 -11.4719 -11.4684 -11.4177 -11.1051 -11.0659 -10.9789
   -10.6730 -10.6676 -10.6483 -10.6365 -10.6206 -10.6119 -10.5485 -10.5268
   -10.4095 -10.3117 -10.2779 -10.1898  -9.7087  -9.6681  -9.5273  -9.1690
    -9.1503  -8.8511  -8.6180  -8.4541  -8.4356  -8.4193  -8.3977  -8.3865
    -8.3696  -8.3518  -8.3093  -8.2264  -8.1451  -8.1210  -8.0308  -7.9864
    -7.9449  -7.9200  -7.8989  -7.7602  -7.7444  -7.7022  -7.6935  -7.6789
    -7.6561  -7.6350  -7.5875  -7.5528  -7.5142  -7.4940  -7.4792  -7.4625
    -7.4570  -7.4299  -7.2837  -7.2523  -7.2304  -7.1898  -7.1432  -7.1123
    -7.0577  -7.0476  -7.0438  -7.0221  -6.9986  -6.9722  -6.9469  -6.8472
    -6.7272  -6.6652  -6.6344  -6.6234  -6.6060  -6.5791  -6.5428  -6.4479
    -6.3733  -6.3655  -6.3242  -6.2725  -6.2397  -6.2098  -6.2032  -6.1784
    -6.1671  -6.1547  -6.1324  -6.1148  -6.1096  -6.0996  -6.0945  -6.0775
    -6.0174  -5.9377  -5.9243  -5.9105  -5.8514  -5.8230  -5.7897  -5.7630
    -5.7382  -5.6809  -5.6387  -5.5056  -5.4868  -5.4586  -5.4358  -5.3751
    -5.3583  -5.3248  -5.3057  -5.3027  -5.2806  -5.2432  -5.2343  -5.2287
    -5.2197  -5.2114  -5.1631  -5.1569  -5.1459  -5.1387  -5.1355  -5.1243
    -5.1034  -5.0974  -5.0914  -5.0765  -5.0316  -5.0103  -4.9913  -4.9851
    -4.9694  -4.9349  -4.8834  -4.8704  -4.8574  -4.8426  -4.8320  -4.8139
    -4.8112  -4.7820  -4.7158  -4.6589  -4.6210  -4.6019  -4.5843  -4.5609
    -4.5462  -4.5316  -4.4752  -4.4648  -4.4346  -4.4031  -4.3893  -4.3660
    -4.3447  -4.2967  -4.2657  -4.2484  -4.2167  -4.1913  -4.1339  -4.1179
    -4.0952  -4.0886  -4.0499  -4.0382  -3.9862  -3.9450  -3.9242  -3.8632
    -3.8097  -3.7893  -3.7823  -3.7384  -3.7227  -3.7079  -3.6980  -3.4718
    -3.4166  -3.2986  -3.1659  -2.8866  -2.8567  -2.8379  -2.8112  -2.8083
    -2.7706  -2.7257  -2.6525  -2.6343  -2.5484  -2.4897  -2.4233  -2.1993
    -2.1840  -2.1633  -2.1362  -2.1003  -2.0583  -2.0356  -2.0287  -2.0097
    -1.9348  -1.7451  -1.7126  -1.7024  -1.6647  -1.5735  -1.5432  -1.5386
    -1.4996  -1.4459  -1.4106  -1.3544  -1.2493  -1.2117  -1.1920  -1.1306
    -0.9311  -0.9218  -0.9018  -0.8934  -0.8629  -0.8497  -0.4364  -0.4156
    -0.3110   2.1265   2.2024   2.2797   2.3088   2.3325   2.4042   2.8266
     2.8808   2.9687   3.6547   3.6690   3.6814   3.7477   3.7699   3.8932
     3.9251   3.9674   4.0155   4.0743   4.1025   4.1131   4.1619   4.3123
     4.3558   4.4377   4.4724   4.4958   4.5514   4.5743   4.6318   4.6496
     4.7107   4.7715   4.8521   4.8916   4.9079   4.9335   4.9735   4.9916
     5.0244   5.0503   5.0830   5.1006   5.1584   5.1974   5.2367   5.2755
     5.3323   5.3703   5.3798   5.3942   5.4502   5.5776   5.6272   5.6429
     5.7347   5.7658   5.8285   5.8551   5.8732   5.9259   5.9723   6.0458
     6.1081

     occupation numbers 
     1.0000   1.0000   1.0000   1.0000   1.0000   1.0000   1.0000   1.0000
     1.0000   1.0000   1.0000   1.0000   1.0000   1.0000   1.0000   1.0000
     1.0000   1.0000   1.0000   1.0000   1.0000   1.0000   1.0000   1.0000
     1.0000   1.0000   1.0000   1.0000   1.0000   1.0000   1.0000   1.0000
     1.0000   1.0000   1.0000   1.0000   1.0000   1.0000   1.0000   1.0000
     1.0000   1.0000   1.0000   1.0000   1.0000   1.0000   1.0000   1.0000
     1.0000   1.0000   1.0000   1.0000   1.0000   1.0000   1.0000   1.0000
     1.0000   1.0000   1.0000   1.0000   1.0000   1.0000   1.0000   1.0000
     1.0000   1.0000   1.0000   1.0000   1.0000   1.0000   1.0000   1.0000
     1.0000   1.0000   1.0000   1.0000   1.0000   1.0000   1.0000   1.0000
     1.0000   1.0000   1.0000   1.0000   1.0000   1.0000   1.0000   1.0000
     1.0000   1.0000   1.0000   1.0000   1.0000   1.0000   1.0000   1.0000
     1.0000   1.0000   1.0000   1.0000   1.0000   1.0000   1.0000   1.0000
     1.0000   1.0000   1.0000   1.0000   1.0000   1.0000   1.0000   1.0000
     1.0000   1.0000   1.0000   1.0000   1.0000   1.0000   1.0000   1.0000
     1.0000   1.0000   1.0000   1.0000   1.0000   1.0000   1.0000   1.0000
     1.0000   1.0000   1.0000   1.0000   1.0000   1.0000   1.0000   1.0000
     1.0000   1.0000   1.0000   1.0000   1.0000   1.0000   1.0000   1.0000
     1.0000   1.0000   1.0000   1.0000   1.0000   1.0000   1.0000   1.0000
     1.0000   1.0000   1.0000   1.0000   1.0000   1.0000   1.0000   1.0000
     1.0000   1.0000   1.0000   1.0000   1.0000   1.0000   1.0000   1.0000
     1.0000   1.0000   1.0000   1.0000   1.0000   1.0000   1.0000   1.0000
     1.0000   1.0000   1.0000   1.0000   1.0000   1.0000   1.0000   1.0000
     1.0000   1.0000   1.0000   1.0000   1.0000   1.0000   1.0000   1.0000
     1.0000   1.0000   1.0000   1.0000   1.0000   1.0000   1.0000   1.0000
     1.0000   1.0000   1.0000   1.0000   1.0000   1.0000   1.0000   1.0000
     1.0000   1.0000   1.0000   1.0000   1.0000   1.0000   1.0000   1.0000
     1.0000   1.0000   1.0000   1.0000   1.0000   1.0000   1.0000   1.0000
     1.0000   1.0000   1.0000   1.0000   1.0000   1.0000   1.0000   1.0000
     1.0000   1.0000   1.0000   1.0000   1.0000   1.0000   1.0000   1.0000
     1.0000   1.0000   1.0000   1.0000   1.0000   1.0000   1.0000   1.0000
     1.0000   1.0000   1.0000   1.0000   1.0000   1.0000   1.0000   1.0000
     1.0000   1.0000   1.0000   1.0000   1.0000   1.0000   1.0000   1.0000
     1.0000   1.0000   1.0000   1.0000   1.0000   1.0000   1.0000   1.0000
     1.0000   1.0000   1.0000   1.0000   1.0000   1.0000   1.0000   1.0000
     1.0000   1.0000   1.0000   1.0000   1.0000   1.0000   1.0000   1.0000
     1.0000   1.0000   1.0000   1.0000   1.0000   1.0000   1.0000   1.0000
     1.0000   1.0000   1.0000   1.0000   1.0000   1.0000   1.0000   1.0000
     1.0000   1.0000   1.0000   1.0000   1.0000   1.0000   1.0000   1.0000
     1.0000   1.0000   1.0000   1.0000   1.0000   1.0000   1.0000   1.0000
     1.0000   0.0000   0.0000   0.0000   0.0000   0.0000   0.0000   0.0000
     0.0000   0.0000   0.0000   0.0000   0.0000   0.0000   0.0000   0.0000
     0.0000   0.0000   0.0000   0.0000   0.0000   0.0000   0.0000   0.0000
     0.0000   0.0000   0.0000   0.0000   0.0000   0.0000   0.0000   0.0000
     0.0000   0.0000   0.0000   0.0000   0.0000   0.0000   0.0000   0.0000
     0.0000   0.0000   0.0000   0.0000   0.0000   0.0000   0.0000   0.0000
     0.0000   0.0000   0.0000   0.0000   0.0000   0.0000   0.0000   0.0000
     0.0000   0.0000   0.0000   0.0000   0.0000   0.0000   0.0000   0.0000
     0.0000

     the Fermi energy is     1.1159 ev

!    total energy              =   -5051.67486001 Ry
     estimated scf accuracy    <          9.4E-09 Ry
     smearing contrib. (-TS)   =       0.00000000 Ry
     internal energy E=F+TS    =   -5051.67486001 Ry

     The total energy is F=E-TS. E is the sum of the following terms:
     one-electron contribution =  -18958.23664938 Ry
     hartree contribution      =    9635.34455810 Ry
     xc contribution           =    -812.97272279 Ry
     ewald contribution        =    5637.69518093 Ry
     Dispersion Correction     =      -0.95974805 Ry
     one-center paw contrib.   =    -552.54547883 Ry
      -> PAW hartree energy AE =      18.72361688 Ry
      -> PAW hartree energy PS =     -18.70629792 Ry
      -> PAW xc energy AE      =     -20.66396240 Ry
      -> PAW xc energy PS      =       8.86586439 Ry
      -> total E_H with PAW    =    9635.36187707 Ry
      -> total E_XC with PAW   =    -824.77082080 Ry

     convergence has been achieved in  14 iterations

     negative rho (up, down):  9.439E-04 0.000E+00

     Forces acting on atoms (cartesian axes, Ry/au):

     atom    1 type  1   force =    -0.00187686    0.00163299   -0.00041321
     atom    2 type  2   force =    -0.00054010   -0.00088063    0.00010372
     atom    3 type  1   force =    -0.00018424   -0.00085834   -0.00038620
     atom    4 type  1   force =    -0.00061195   -0.00116956    0.00047911
     atom    5 type  2   force =     0.00053612   -0.00143370   -0.00072981
     atom    6 type  1   force =     0.00000591   -0.00028188   -0.00069035
     atom    7 type  1   force =     0.00004560    0.00151160    0.00097679
     atom    8 type  2   force =     0.00147990    0.00066500   -0.00074291
     atom    9 type  2   force =    -0.00028956   -0.00006193    0.00053412
     atom   10 type  2   force =    -0.00176949    0.00064918   -0.00148177
     atom   11 type  2   force =    -0.00167977   -0.00074151    0.00069008
     atom   12 type  2   force =     0.00186295   -0.00045699    0.00072627
     atom   13 type  1   force =     0.00116126    0.00010522   -0.00039218
     atom   14 type  1   force =    -0.00021891    0.00265239    0.00071735
     atom   15 type  2   force =    -0.00024839    0.00235560   -0.00036963
     atom   16 type  1   force =    -0.00113356   -0.00006958    0.00052594
     atom   17 type  1   force =    -0.00146928    0.00053540   -0.00039576
     atom   18 type  2   force =    -0.00116695    0.00181325    0.00204767
     atom   19 type  2   force =     0.00046050   -0.00123573   -0.00003892
     atom   20 type  2   force =     0.00130433   -0.00059639    0.00012926
     atom   21 type  5   force =    -0.00091440    0.00126312   -0.00130403
     atom   22 type  2   force =     0.00023643    0.00011267   -0.00150802
     atom   23 type  2   force =    -0.00110291   -0.00073478   -0.00066198
     atom   24 type  1   force =    -0.00093165    0.00080105    0.00057600
     atom   25 type  2   force =     0.00181573   -0.00054495   -0.00040957
     atom   26 type  4   force =     0.00167128    0.00197831    0.00000292
     atom   27 type  5   force =    -0.00024861   -0.00026344    0.00043392
     atom   28 type  2   force =     0.00014813   -0.00053773    0.00159623
     atom   29 type  2   force =    -0.00023706   -0.00062558   -0.00092698
     atom   30 type  4   force =    -0.00223132    0.00027396    0.00074465
     atom   31 type  1   force =     0.00151620    0.00070903   -0.00158652
     atom   32 type  1   force =    -0.00024708   -0.00054194   -0.00104747
     atom   33 type  2   force =     0.00132485    0.00051933   -0.00210630
     atom   34 type  2   force =    -0.00020686    0.00041524   -0.00110546
     atom   35 type  4   force =     0.00181218    0.00196644    0.00008202
     atom   36 type  1   force =     0.00156890    0.00204907    0.00248850
     atom   37 type  1   force =     0.00088194   -0.00103410    0.00002632
     atom   38 type  1   force =    -0.00031597    0.00058668   -0.00046249
     atom   39 type  3   force =    -0.00004809    0.00110048   -0.00026520
     atom   40 type  5   force =    -0.00049467   -0.00038739   -0.00031561
     atom   41 type  2   force =    -0.00122564    0.00044218    0.00090661
     atom   42 type  1   force =    -0.00172747    0.00165231   -0.00066306
     atom   43 type  4   force =    -0.00151065    0.00080966    0.00075668
     atom   44 type  2   force =    -0.00093505    0.00062567   -0.00007917
     atom   45 type  2   force =    -0.00008034    0.00068232   -0.00017261
     atom   46 type  2   force =     0.00065284    0.00109641    0.00002545
     atom   47 type  2   force =     0.00001433    0.00022630    0.00073233
     atom   48 type  2   force =     0.00043649    0.00031719    0.00041266
     atom   49 type  2   force =     0.00011922    0.00034234   -0.00055727
     atom   50 type  3   force =     0.00000808    0.00121632    0.00007837
     atom   51 type  5   force =     0.00025536   -0.00016495   -0.00024516
     atom   52 type  2   force =    -0.00021965    0.00010553   -0.00005431
     atom   53 type  2   force =    -0.00050888    0.00024080    0.00122471
     atom   54 type  5   force =    -0.00032253   -0.00000712    0.00042296
     atom   55 type  2   force =     0.00059142    0.00035892    0.00019448
     atom   56 type  2   force =    -0.00120238    0.00086099   -0.00010799
     atom   57 type  2   force =    -0.00050455   -0.00021378   -0.00159856
     atom   58 type  5   force =     0.00003745    0.00043456   -0.00041479
     atom   59 type  5   force =    -0.00114649   -0.00098289   -0.00127843
     atom   60 type  1   force =    -0.00053161   -0.00018270    0.00035209
     atom   61 type  3   force =    -0.00004964   -0.00047937   -0.00075539
     atom   62 type  1   force =     0.00055208    0.00071301    0.00109850
     atom   63 type  2   force =     0.00050313   -0.00016285    0.00090247
     atom   64 type  1   force =     0.00038578   -0.00036792    0.00039385
     atom   65 type  1   force =    -0.00031054   -0.00041297    0.00103450
     atom   66 type  1   force =     0.00161186   -0.00155686    0.00115961
     atom   67 type  5   force =     0.00021140    0.00022073    0.00045675
     atom   68 type  2   force =     0.00213203    0.00015609   -0.00200175
     atom   69 type  2   force =     0.00132794   -0.00126397    0.00145446
     atom   70 type  1   force =     0.00243223   -0.00065144    0.00053571
     atom   71 type  5   force =     0.00136664    0.00001173   -0.00140486
     atom   72 type  1   force =     0.00104680    0.00269025   -0.00259804
     atom   73 type  2   force =     0.00107035   -0.00046801    0.00003382
     atom   74 type  1   force =    -0.00190475   -0.00127330   -0.00003206
     atom   75 type  2   force =     0.00115003   -0.00004368   -0.00013960
     atom   76 type  2   force =    -0.00122159   -0.00038714   -0.00015015
     atom   77 type  1   force =    -0.00058842    0.00089688    0.00044063
     atom   78 type  1   force =     0.00027165   -0.00091652    0.00055350
     atom   79 type  2   force =     0.00040566    0.00023449    0.00044851
     atom   80 type  1   force =    -0.00026520   -0.00019331   -0.00071950
     atom   81 type  2   force =    -0.00059601    0.00095206    0.00009018
     atom   82 type  1   force =    -0.00053829    0.00129250    0.00027484
     atom   83 type  2   force =     0.00011629   -0.00028478   -0.00059016
     atom   84 type  2   force =     0.00079845    0.00086200   -0.00134383
     atom   85 type  1   force =    -0.00060198    0.00042993   -0.00033338
     atom   86 type  2   force =    -0.00143480    0.00023121   -0.00070761
     atom   87 type  1   force =    -0.00017027    0.00162832    0.00170435
     atom   88 type  2   force =    -0.00036891    0.00015382    0.00035765
     atom   89 type  1   force =    -0.00025336    0.00020272   -0.00094297
     atom   90 type  1   force =     0.00088669   -0.00013722   -0.00047037
     atom   91 type  4   force =     0.00082491    0.00261102   -0.00012007
     atom   92 type  4   force =     0.00079018    0.00243485   -0.00001864
     atom   93 type  2   force =    -0.00032753    0.00179521    0.00072046
     atom   94 type  1   force =    -0.00129586   -0.00190858    0.00180697
     atom   95 type  4   force =     0.00076885   -0.00248358   -0.00004253
     atom   96 type  2   force =    -0.00138631   -0.00121197   -0.00035975
     atom   97 type  2   force =    -0.00055771    0.00039397   -0.00099616
     atom   98 type  1   force =     0.00060753   -0.00037132    0.00038717
     atom   99 type  2   force =    -0.00014636   -0.00054656    0.00138102
     atom  100 type  1   force =    -0.00224201    0.00049143   -0.00115471
     atom  101 type  2   force =     0.00011968    0.00054390   -0.00040845
     atom  102 type  1   force =     0.00102464   -0.00249762    0.00240731
     atom  103 type  2   force =    -0.00135865    0.00114597    0.00027627
     atom  104 type  1   force =     0.00068102    0.00042310   -0.00045659
     atom  105 type  2   force =    -0.00024092    0.00132427    0.00216134
     atom  106 type  4   force =     0.00088313   -0.00260551    0.00019994
     atom  107 type  1   force =     0.00098867    0.00021217    0.00041689
     atom  108 type  2   force =    -0.00037187   -0.00132367   -0.00208377
     atom  109 type  2   force =    -0.00055537    0.00027401    0.00154572
     atom  110 type  1   force =    -0.00014034   -0.00046640    0.00084359
     atom  111 type  2   force =     0.00214897   -0.00000119    0.00209304
     atom  112 type  1   force =    -0.00048821   -0.00120253   -0.00028638
     atom  113 type  1   force =    -0.00060423   -0.00046630    0.00029771
     atom  114 type  2   force =    -0.00141960   -0.00054559    0.00081440
     atom  115 type  1   force =    -0.00029227    0.00045159   -0.00102041
     atom  116 type  2   force =     0.00095618   -0.00107746    0.00081447
     atom  117 type  2   force =    -0.00028338   -0.00174777   -0.00080171
     atom  118 type  2   force =     0.00058440   -0.00036225   -0.00016353
     atom  119 type  1   force =     0.00037663    0.00074754   -0.00120607
     atom  120 type  2   force =     0.00119629    0.00034567    0.00007822
     atom  121 type  2   force =    -0.00058113   -0.00118303   -0.00011502
     atom  122 type  1   force =    -0.00036368   -0.00158661   -0.00149374
     atom  123 type  1   force =    -0.00009648    0.00015404    0.00074827
     atom  124 type  2   force =     0.00096880    0.00049335    0.00003382
     atom  125 type  1   force =    -0.00044774   -0.00078739   -0.00056353
     atom  126 type  5   force =     0.00027206   -0.00027314   -0.00046359
     atom  127 type  5   force =     0.00140101    0.00003591    0.00137120
     atom  128 type  2   force =     0.00147341    0.00114099   -0.00142138
     atom  129 type  1   force =     0.00238253    0.00064844   -0.00053022
     atom  130 type  1   force =     0.00140541    0.00156572   -0.00102814
     atom  131 type  2   force =    -0.00124344   -0.00076376    0.00010627
     atom  132 type  2   force =    -0.00145904   -0.00115588    0.00077088
     atom  133 type  2   force =    -0.00127443    0.00037279   -0.00001473
     atom  134 type  1   force =     0.00078326    0.00043687   -0.00044062
     atom  135 type  2   force =     0.00051690    0.00026640   -0.00080047
     atom  136 type  1   force =     0.00060581   -0.00058221   -0.00111994
     atom  137 type  1   force =    -0.00053982    0.00029023   -0.00011372
     atom  138 type  5   force =    -0.00074806    0.00113656    0.00143215
     atom  139 type  3   force =     0.00012122    0.00054152    0.00008770
     atom  140 type  5   force =     0.00001990   -0.00051032    0.00036378
     atom  141 type  5   force =    -0.00033695   -0.00014408   -0.00036163
     atom  142 type  2   force =    -0.00107243    0.00180409   -0.00194915
     atom  143 type  5   force =     0.00038385    0.00030430    0.00033545
     atom  144 type  1   force =    -0.00080188   -0.00107367    0.00030377
     atom  145 type  2   force =     0.00014662   -0.00042060    0.00053262
     atom  146 type  3   force =    -0.00085443   -0.00021882    0.00022573
     atom  147 type  2   force =     0.00040399   -0.00026363   -0.00044860
     atom  148 type  2   force =     0.00037172    0.00181599    0.00144568
     atom  149 type  2   force =    -0.00028228   -0.00174298    0.00034816
     atom  150 type  2   force =    -0.00001280   -0.00069782    0.00019849
     atom  151 type  4   force =    -0.00249981   -0.00052945    0.00002664
     atom  152 type  2   force =    -0.00091653   -0.00072463    0.00007231
     atom  153 type  3   force =     0.00058073   -0.00053937    0.00043211
     atom  154 type  5   force =    -0.00065092    0.00019965    0.00030781
     atom  155 type  1   force =     0.00160366   -0.00212681   -0.00252460
     atom  156 type  4   force =     0.00179946   -0.00194851   -0.00008380
     atom  157 type  2   force =     0.00135130   -0.00036178    0.00219629
     atom  158 type  1   force =    -0.00026326    0.00055555    0.00101166
[...]
     atom   35 type  4   force =     0.00278832    0.00272975   -0.00015270
     atom   36 type  1   force =     0.00170390    0.00264523    0.00271266
     atom   37 type  1   force =     0.00079131   -0.00078089    0.00012457
     atom   38 type  1   force =    -0.00076736    0.00073006   -0.00019686
     atom   39 type  3   force =    -0.00047632   -0.00036217    0.00075599
     atom   40 type  5   force =    -0.00090302   -0.00020682   -0.00036279
     atom   41 type  2   force =    -0.00158241    0.00041278    0.00117721
     atom   42 type  1   force =    -0.00201557    0.00236655   -0.00080957
     atom   43 type  4   force =    -0.00235722    0.00104448    0.00100895
     atom   44 type  2   force =    -0.00071760    0.00103299   -0.00023190
     atom   45 type  2   force =     0.00004140    0.00100364   -0.00015859
     atom   46 type  2   force =     0.00071557    0.00149050    0.00008168
     atom   47 type  2   force =    -0.00000678    0.00063734    0.00077156
     atom   48 type  2   force =     0.00110625    0.00089303    0.00047872
     atom   49 type  2   force =     0.00089622    0.00061280   -0.00035104
     atom   50 type  3   force =     0.00075284    0.00289012    0.00027584
     atom   51 type  5   force =     0.00027324   -0.00058729   -0.00042247
     atom   52 type  2   force =    -0.00079517    0.00046503    0.00012314
     atom   53 type  2   force =    -0.00110312    0.00048633    0.00112951
     atom   54 type  5   force =    -0.00002963   -0.00008789    0.00065569
     atom   55 type  2   force =     0.00086196    0.00056667    0.00014665
     atom   56 type  2   force =    -0.00145932    0.00108860   -0.00034335
     atom   57 type  2   force =    -0.00030304   -0.00004362   -0.00160031
     atom   58 type  5   force =     0.00039324    0.00079590   -0.00056237
     atom   59 type  5   force =    -0.00189840   -0.00144688   -0.00187618
     atom   60 type  1   force =    -0.00041594   -0.00018265    0.00024712
     atom   61 type  3   force =    -0.00122328    0.00065011    0.00030189
     atom   62 type  1   force =     0.00076578    0.00040942    0.00141290
     atom   63 type  2   force =     0.00105667   -0.00039343    0.00122083
     atom   64 type  1   force =     0.00049646   -0.00020401    0.00049100
     atom   65 type  1   force =    -0.00018677   -0.00009787    0.00108210
     atom   66 type  1   force =     0.00198709   -0.00200851    0.00172054
     atom   67 type  5   force =    -0.00019048    0.00024949    0.00069215
     atom   68 type  2   force =     0.00214399    0.00090728   -0.00203542
     atom   69 type  2   force =     0.00104001   -0.00108396    0.00151237
     atom   70 type  1   force =     0.00289719   -0.00052928    0.00022357
     atom   71 type  5   force =     0.00224620   -0.00028295   -0.00212226
     atom   72 type  1   force =     0.00144325    0.00308445   -0.00281794
     atom   73 type  2   force =     0.00130700   -0.00003336    0.00028331
     atom   74 type  1   force =    -0.00217446   -0.00155544   -0.00040973
     atom   75 type  2   force =     0.00146805   -0.00007211   -0.00036012
     atom   76 type  2   force =    -0.00131639    0.00003992    0.00006136
     atom   77 type  1   force =    -0.00068688    0.00096194    0.00109663
     atom   78 type  1   force =     0.00016457   -0.00116948    0.00101668
     atom   79 type  2   force =     0.00021493    0.00099901    0.00033048
     atom   80 type  1   force =     0.00000539   -0.00023618   -0.00117275
     atom   81 type  2   force =    -0.00079225    0.00126383    0.00037313
     atom   82 type  1   force =    -0.00069957    0.00152485    0.00007853
     atom   83 type  2   force =    -0.00008857   -0.00109368   -0.00042345
     atom   84 type  2   force =     0.00086135    0.00073928   -0.00156488
     atom   85 type  1   force =    -0.00062013    0.00055023   -0.00053981
     atom   86 type  2   force =    -0.00144175    0.00035112   -0.00114297
     atom   87 type  1   force =    -0.00007020    0.00272077    0.00197704
     atom   88 type  2   force =    -0.00034671   -0.00033579    0.00038432
     atom   89 type  1   force =    -0.00038952   -0.00004049   -0.00145788
     atom   90 type  1   force =     0.00093925   -0.00013360   -0.00111247
     atom   91 type  4   force =     0.00098732    0.00379309    0.00009546
     atom   92 type  4   force =     0.00094681    0.00362621   -0.00008682
     atom   93 type  2   force =    -0.00015396    0.00208090    0.00039409
     atom   94 type  1   force =    -0.00173940   -0.00227568    0.00255215
     atom   95 type  4   force =     0.00091426   -0.00369854    0.00005294
     atom   96 type  2   force =    -0.00137327   -0.00141137   -0.00091526
     atom   97 type  2   force =    -0.00092778    0.00067861   -0.00130000
     atom   98 type  1   force =     0.00066974   -0.00030523    0.00058722
     atom   99 type  2   force =    -0.00059072   -0.00105921    0.00171594
     atom  100 type  1   force =    -0.00281439    0.00063720   -0.00176299
     atom  101 type  2   force =     0.00028758    0.00128232   -0.00051194
     atom  102 type  1   force =     0.00142379   -0.00294570    0.00260364
     atom  103 type  2   force =    -0.00133707    0.00133112    0.00081920
     atom  104 type  1   force =     0.00077239    0.00030541   -0.00066481
     atom  105 type  2   force =    -0.00037840    0.00234486    0.00259214
     atom  106 type  4   force =     0.00098727   -0.00396705    0.00000633
     atom  107 type  1   force =     0.00115983    0.00020133    0.00112429
     atom  108 type  2   force =    -0.00058842   -0.00237954   -0.00252269
     atom  109 type  2   force =    -0.00034042    0.00005916    0.00155454
     atom  110 type  1   force =    -0.00033173   -0.00029289    0.00128436
     atom  111 type  2   force =     0.00229884   -0.00081879    0.00211049
     atom  112 type  1   force =    -0.00066337   -0.00147235   -0.00013824
     atom  113 type  1   force =    -0.00053837   -0.00058031    0.00051062
     atom  114 type  2   force =    -0.00133513   -0.00063738    0.00125630
     atom  115 type  1   force =    -0.00014208    0.00006512   -0.00108468
     atom  116 type  2   force =     0.00096482   -0.00107277    0.00120661
     atom  117 type  2   force =    -0.00013601   -0.00210802   -0.00053384
     atom  118 type  2   force =     0.00084790   -0.00059463   -0.00014969
     atom  119 type  1   force =     0.00001423    0.00084473   -0.00150383
     atom  120 type  2   force =     0.00143505    0.00034470    0.00046352
     atom  121 type  2   force =    -0.00073448   -0.00133789   -0.00034911
     atom  122 type  1   force =    -0.00033575   -0.00265408   -0.00176888
     atom  123 type  1   force =     0.00014820    0.00009650    0.00114274
     atom  124 type  2   force =     0.00111396    0.00016323   -0.00018695
     atom  125 type  1   force =    -0.00054991   -0.00085572   -0.00120785
     atom  126 type  5   force =    -0.00001215   -0.00012894   -0.00062274
     atom  127 type  5   force =     0.00224948    0.00028839    0.00210884
     atom  128 type  2   force =     0.00122095    0.00096075   -0.00146328
     atom  129 type  1   force =     0.00290506    0.00046681   -0.00026895
     atom  130 type  1   force =     0.00186370    0.00200466   -0.00166912
     atom  131 type  2   force =    -0.00145220   -0.00105368    0.00032915
     atom  132 type  2   force =    -0.00184157   -0.00117982    0.00044322
     atom  133 type  2   force =    -0.00139057   -0.00007845   -0.00018074
     atom  134 type  1   force =     0.00083278    0.00018864   -0.00045141
     atom  135 type  2   force =     0.00098704    0.00045007   -0.00112936
     atom  136 type  1   force =     0.00077433   -0.00026277   -0.00140934
     atom  137 type  1   force =    -0.00040471    0.00056918   -0.00019281
     atom  138 type  5   force =    -0.00131349    0.00175292    0.00210646
     atom  139 type  3   force =    -0.00105286   -0.00048732   -0.00098538
     atom  140 type  5   force =     0.00034458   -0.00079222    0.00049828
     atom  141 type  5   force =    -0.00010052    0.00006262   -0.00053478
     atom  142 type  2   force =    -0.00183493    0.00150391   -0.00200164
     atom  143 type  5   force =     0.00044546    0.00074356    0.00048493
     atom  144 type  1   force =    -0.00100168   -0.00133229    0.00010871
     atom  145 type  2   force =     0.00092427   -0.00062482    0.00035981
     atom  146 type  3   force =     0.00067408   -0.00072529   -0.00081398
     atom  147 type  2   force =     0.00106645   -0.00080950   -0.00048386
     atom  148 type  2   force =     0.00026965    0.00149461    0.00145313
     atom  149 type  2   force =    -0.00047997   -0.00188789    0.00086836
     atom  150 type  2   force =     0.00007709   -0.00100236    0.00016580
     atom  151 type  4   force =    -0.00364348   -0.00096091   -0.00009880
     atom  152 type  2   force =    -0.00068108   -0.00111334    0.00027207
     atom  153 type  3   force =     0.00021373    0.00092063   -0.00060997
     atom  154 type  5   force =    -0.00098587    0.00002459    0.00044308
     atom  155 type  1   force =     0.00177305   -0.00270132   -0.00273689
     atom  156 type  4   force =     0.00280492   -0.00267005    0.00014370
     atom  157 type  2   force =     0.00221158   -0.00074266    0.00259344
     atom  158 type  1   force =    -0.00000262    0.00026621    0.00107798
     atom  159 type  2   force =     0.00014471    0.00028885   -0.00157814
     atom  160 type  1   force =     0.00236662   -0.00128140    0.00191043
     atom  161 type  4   force =     0.00268339   -0.00263455   -0.00016030
     atom  162 type  2   force =     0.00190000    0.00048599    0.00088394
     atom  163 type  2   force =    -0.00186224   -0.00141298    0.00256105
     atom  164 type  2   force =     0.00061472   -0.00119797    0.00013223
     atom  165 type  5   force =     0.00011088    0.00004862   -0.00056224
     atom  166 type  4   force =    -0.00380743   -0.00092092    0.00002272
     atom  167 type  1   force =    -0.00034476   -0.00076890   -0.00034740
     atom  168 type  1   force =    -0.00335467   -0.00019406   -0.00278807
     atom  169 type  2   force =    -0.00025096   -0.00177893   -0.00032740
     atom  170 type  1   force =    -0.00229260   -0.00137135    0.00202851
     atom  171 type  2   force =    -0.00121020   -0.00034031   -0.00055494
     atom  172 type  2   force =     0.00018662   -0.00022836   -0.00159579
     atom  173 type  2   force =     0.00166342    0.00073284   -0.00037290
     atom  174 type  5   force =    -0.00094686   -0.00194417    0.00217398
     atom  175 type  2   force =     0.00069652    0.00111245    0.00007477
     atom  176 type  1   force =     0.00012876   -0.00007103    0.00107763
     atom  177 type  2   force =    -0.00100820   -0.00031335    0.00024646
     atom  178 type  1   force =     0.00154659   -0.00027509    0.00007500
     atom  179 type  1   force =    -0.00073932   -0.00046439   -0.00150109
     atom  180 type  1   force =    -0.00084664   -0.00276843   -0.00009241
     atom  181 type  2   force =    -0.00056619    0.00114614    0.00026853
     atom  182 type  2   force =    -0.00145029   -0.00057863    0.00150737
     atom  183 type  2   force =    -0.00092435    0.00047923    0.00014043
     atom  184 type  2   force =     0.00188557   -0.00095309    0.00049251
     atom  185 type  2   force =    -0.00039854   -0.00240470   -0.00202075
     atom  186 type  2   force =    -0.00014667   -0.00115221   -0.00130902
     atom  187 type  1   force =     0.00083584   -0.00278970   -0.00177208
     atom  188 type  1   force =     0.00050116   -0.00010147    0.00130511
     atom  189 type  2   force =     0.00053779    0.00127279    0.00111502
     atom  190 type  1   force =    -0.00037891    0.00085236   -0.00105707
     atom  191 type  1   force =    -0.00008284    0.00070361    0.00059053
     atom  192 type  2   force =    -0.00064373    0.00124010   -0.00032242

     Total force =     0.024261     Total SCF correction =     0.000183

     Total Dispersion Force =     0.030707


     Computing stress (Cartesian axis) and pressure


     negative rho (up, down):  9.439E-04 0.000E+00
          total   stress  (Ry/bohr**3)                   (kbar)     P=       -3.75
  -0.00002230  -0.00000206   0.00000244           -3.28       -0.30        0.36
  -0.00000206  -0.00002708   0.00000170           -0.30       -3.98        0.25
   0.00000244   0.00000170  -0.00002714            0.36        0.25       -3.99

     kinetic stress (kbar)   6577.04      4.09      6.46
                                4.09   6560.01      3.13
                                6.46      3.13   6447.13

     local   stress (kbar)  -5935.39   -656.66   -326.19
                             -656.66  -3792.45    371.09
                             -326.19    371.09-125582.59

     nonloc. stress (kbar)   1018.08      0.09      1.12
                                0.09   1017.19     -0.61
                                1.12     -0.61   1027.34

     hartree stress (kbar)   5705.44    327.79    134.66
                              327.79   4661.35   -149.40
                              134.66   -149.40  64257.09

     exc-cor stress (kbar)  -1209.84     -0.04      0.12
                               -0.04  -1209.85     -0.16
                                0.12     -0.16  -1206.14

     corecor stress (kbar)   -661.81      0.01     -0.15
                                0.01   -661.71      0.05
                               -0.15      0.05   -664.22

     ewald   stress (kbar)  -5490.18    324.41    184.32
                              324.41  -6571.82   -223.84
                              184.32   -223.84  55724.85

     hubbard stress (kbar)      0.00      0.00      0.00
                                0.00      0.00      0.00
                                0.00      0.00      0.00

     DFT-D   stress (kbar)     -6.63      0.02      0.03
                                0.02     -6.71     -0.01
                                0.03     -0.01     -7.45

     XDM     stress (kbar)      0.00      0.00      0.00
                                0.00      0.00      0.00
                                0.00      0.00      0.00

     dft-nl  stress (kbar)      0.00      0.00      0.00
                                0.00      0.00      0.00
                                0.00      0.00      0.00

     TS-vdW  stress (kbar)      0.00      0.00      0.00
                                0.00      0.00      0.00
                                0.00      0.00      0.00


                                0.00      0.00      0.00
                                0.00      0.00      0.00


                                0.00      0.00      0.00


     Writing all to output data dir ./out/m2m.save/
 
     init_run     :      6.79s CPU     12.96s WALL (       1 calls)
     electrons    :     22.97s CPU     33.19s WALL (       1 calls)
     forces       :      0.47s CPU      0.52s WALL (       1 calls)
     force_london :      0.09s CPU      0.09s WALL (       1 calls)
     stress       :      4.92s CPU      5.18s WALL (       1 calls)
     stres_london :      0.10s CPU      0.11s WALL (       1 calls)

     Called by init_run:
     wfcinit      :      0.57s CPU      1.87s WALL (       1 calls)
                                        1.87s GPU  (       1 calls)
     wfcinit:atom :      0.00s CPU      0.01s WALL (       1 calls)
                                        0.01s GPU  (       1 calls)
     wfcinit:wfcr :      0.40s CPU      1.66s WALL (       1 calls)
                                        1.66s GPU  (       1 calls)
     potinit      :      2.06s CPU      2.46s WALL (       1 calls)
     hinit0       :      1.77s CPU      1.83s WALL (       1 calls)

     Called by electrons:
     c_bands      :     17.15s CPU     24.37s WALL (      14 calls)
     sum_band     :      2.49s CPU      3.78s WALL (      14 calls)
     v_of_rho     :      0.64s CPU      0.84s WALL (      15 calls)
     v_h          :      0.25s CPU      0.28s WALL (      15 calls)
     v_xc         :      0.43s CPU      0.61s WALL (      17 calls)
     newd         :      1.39s CPU      5.42s WALL (      15 calls)
                                        5.42s GPU  (      15 calls)
     PAW_pot      :      1.16s CPU      1.72s WALL (      15 calls)
     mix_rho      :      0.82s CPU      0.88s WALL (      14 calls)
     energy_londo :      0.09s CPU      0.09s WALL (       1 calls)

     Called by c_bands:
     init_us_2    :      0.06s CPU      0.11s WALL (      29 calls)
     init_us_2:gp :      0.06s CPU      0.10s WALL (      29 calls)
     cegterg      :     16.69s CPU     23.58s WALL (      15 calls)

     Called by sum_band:
     sum_band:wei :      0.03s CPU      0.04s WALL (      14 calls)
                                        0.04s GPU  (      14 calls)
     sum_band:loo :      1.95s CPU      3.05s WALL (      14 calls)
                                        3.05s GPU  (      14 calls)
     sum_band:buf :      0.00s CPU      0.00s WALL (      14 calls)
                                        0.00s GPU  (      14 calls)
     sum_band:ini :      0.03s CPU      0.06s WALL (      14 calls)
                                        0.06s GPU  (      14 calls)
     sum_band:cal :      0.13s CPU      0.15s WALL (      14 calls)
                                        0.15s GPU  (      14 calls)
     sum_band:bec :      0.06s CPU      0.06s WALL (      14 calls)
                                        0.06s GPU  (      14 calls)
     addusdens    :      0.09s CPU      0.17s WALL (      14 calls)
                                        0.17s GPU  (      14 calls)
     addusd:skk   :      0.01s CPU      0.05s WALL (      70 calls)
                                        0.02s GPU  (      70 calls)

     Called by *egterg:
     cdiaghg      :      4.85s CPU      6.37s WALL (     158 calls)
                                        6.35s GPU  (     158 calls)
     cegterg:over :      0.57s CPU      0.64s WALL (     144 calls)
     cegterg:upda :      0.10s CPU      0.11s WALL (     144 calls)
     cegterg:last :      0.20s CPU      0.21s WALL (      42 calls)
     h_psi        :     10.32s CPU     16.76s WALL (     160 calls)
                                       16.75s GPU  (     160 calls)
     s_psi        :      0.35s CPU      0.52s WALL (     160 calls)
                                        0.52s GPU  (     160 calls)
     g_psi        :      0.00s CPU      0.01s WALL (     144 calls)
                                        0.01s GPU  (     144 calls)

     Called by h_psi:
     h_psi:calbec :      0.49s CPU      0.59s WALL (     160 calls)
                                        0.59s GPU  (     160 calls)
     vloc_psi     :      9.42s CPU     15.72s WALL (     160 calls)
                                       15.71s GPU  (     160 calls)
     add_vuspsi   :      0.24s CPU      0.43s WALL (     160 calls)
                                        0.43s GPU  (     160 calls)

     General routines
     calbec       :      0.68s CPU      0.80s WALL (     179 calls)
     fft          :      1.29s CPU      1.59s WALL (     218 calls)
                                        0.48s GPU  (     141 calls)
     ffts         :      0.18s CPU      0.19s WALL (      29 calls)
     fftw         :     10.52s CPU     18.41s WALL (    2920 calls)
                                       18.10s GPU  (    2920 calls)
     interpolate  :      0.34s CPU      0.36s WALL (      15 calls)
 
     Parallel routines

     PAW routines
     PAW_pot      :      1.16s CPU      1.72s WALL (      15 calls)
 
     PWSCF        :     36.11s CPU     55.03s WALL

 
   This run was terminated on:   4:38:35  30Aug2023            

=------------------------------------------------------------------------------=
   JOB DONE.
=------------------------------------------------------------------------------=
